
    -----------------------------------------------------------------------
          Psi4: An Open-Source Ab Initio Electronic Structure Package
                               Psi4 1.9.1 release

                         Git: Rev {} zzzzzzz 


    D. G. A. Smith, L. A. Burns, A. C. Simmonett, R. M. Parrish,
    M. C. Schieber, R. Galvelis, P. Kraus, H. Kruse, R. Di Remigio,
    A. Alenaizan, A. M. James, S. Lehtola, J. P. Misiewicz, M. Scheurer,
    R. A. Shaw, J. B. Schriber, Y. Xie, Z. L. Glick, D. A. Sirianni,
    J. S. O'Brien, J. M. Waldrop, A. Kumar, E. G. Hohenstein,
    B. P. Pritchard, B. R. Brooks, H. F. Schaefer III, A. Yu. Sokolov,
    K. Patkowski, A. E. DePrince III, U. Bozkaya, R. A. King,
    F. A. Evangelista, J. M. Turney, T. D. Crawford, C. D. Sherrill,
    J. Chem. Phys. 152(18) 184108 (2020). https://doi.org/10.1063/5.0006002

                            Additional Code Authors
    E. T. Seidl, C. L. Janssen, E. F. Valeev, M. L. Leininger,
    J. F. Gonthier, R. M. Richard, H. R. McAlexander, M. Saitow, X. Wang,
    P. Verma, M. H. Lechner, A. Jiang, S. Behnle, A. G. Heide,
    M. F. Herbst, and D. L. Poole

             Previous Authors, Complete List of Code Contributors,
                       and Citations for Specific Modules
    https://github.com/psi4/psi4/blob/master/codemeta.json
    https://github.com/psi4/psi4/graphs/contributors
    http://psicode.org/psi4manual/master/introduction.html#citing-psifour

    -----------------------------------------------------------------------


    Psi4 started on: Saturday, 13 September 2025 05:01PM

    Process ID: 1952153
    Host:       gnode010.cluster
    PSIDATADIR: /home/hbhat/psi4conda/share/psi4
    Memory:     500.0 MiB
    Threads:    1
    
  ==> Input File <==

--------------------------------------------------------------------------
memory 1 gb

molecule hehp {
1 1
H  0.       0.      -0.386
He 0.       0.       0.386
symmetry c1
no_com
no_reorient
}

set {
    reference rhf
    basis 6-31g
    ms0 false
    fci true
    diag_method rsp
    num_roots 16
    print 2
    dipmom true
    opdm true
    tdm true
}

thisenergy, ciwfn = prop('detci', properties=['DIPOLE', 'TRANSITION_DIPOLE'], return_wfn=True)

mints = MintsHelper(ciwfn.basisset())

AOdip = mints.ao_dipole()
AOdip[0].print_out()
AOdip[1].print_out()
AOdip[2].print_out()

# MO coefficients
C = ciwfn.Ca().to_array()

# overlap matrix
S = ciwfn.S().to_array()

print("Overlap test:")
n = S.shape[0]
print(np.mean(np.abs(C.T @ S @ C - np.eye(n))))

# z-direction AO dipole moment matrix
AOdipmat = AOdip[2].to_array()
MOdipmat = C.T @ AOdipmat @ C

# set CI size
cisize = 16

# grab the Hamiltonian
test = psi4.core.variables()
ham = []
for j in range(cisize):
    ham.append( test['CI ROOT '+str(j)+' TOTAL ENERGY'] )
ham = np.array(ham)

print("Diagonalized Hamiltonian:")
print(ham)

# initialize CI dipole moment matrix in z direction
CIdimatzMO = np.zeros((cisize,cisize))
CIdimatzAO = np.zeros((cisize,cisize))
# initialize B tensor
Bten = np.zeros((cisize, cisize, n, n))
for i in range(cisize):
    for j in range(cisize):
        ciop_dm = ciwfn.get_opdm(i,j,'SUM',True)
        # store this in Bten
        Bten[i,j,:,:] = ciop_dm.to_array()
        # density matrix: change basis from MO to AO
        dmAO = C @ ciop_dm.to_array() @ C.T
        # compute this particular density matrix element
        CIdimatzMO[i, j] = np.trace( ciop_dm.to_array() @ MOdipmat )
        CIdimatzAO[i, j] = np.trace( dmAO @ AOdipmat )

print("Difference between CI basis dipole moment matrices computed via AO vs MO:")
print(np.mean(np.abs(CIdimatzMO - CIdimatzAO)))

CIdimatfile = np.load('../logfiles/casscf24_s15_heh+_6-31g_CI_dimat.npz')
print("Difference between new and old CI basis dipole moment matrices:")
print(np.mean(np.abs(CIdimatfile - CIdimatzMO)))

print("Difference between **diagonals** of new and old CI basis dipole moment matrices:")
print(np.mean(np.abs(np.diag(CIdimatfile - CIdimatzMO))))

# reshape OPDMs into B tensor

np.savez('./fci_heh+_6-31g.npz',C=C,S=S,AOdipmat=AOdipmat,CIdimatz=CIdimatzMO,Bten=Bten,ham=ham)

# for debugging purposes:
# Bmat = Bten.reshape((cisize**2, n**2))
# Bmat[np.abs(Bmat) < 1e-14] = 0.0
# print(Bmat)



--------------------------------------------------------------------------

  Memory set to 953.674 MiB by Python driver.
   => Libint2 <=

    Primary   basis highest AM E, G, H:  6, 6, 3
    Auxiliary basis highest AM E, G, H:  7, 7, 4
    Onebody   basis highest AM E, G, H:  -, -, -
    Solid Harmonics ordering:            Gaussian

*** tstart() called on gnode010.cluster
*** at Sat Sep 13 17:01:26 2025

   => Loading Basis Set <=

    Name: 6-31G
    Role: ORBITAL
    Keyword: BASIS
    atoms 1 entry H          line    26 file /home/hbhat/psi4conda/share/psi4/basis/6-31g.gbs 
    atoms 2 entry HE         line    34 file /home/hbhat/psi4conda/share/psi4/basis/6-31g.gbs 


         ---------------------------------------------------------
                                   SCF
               by Justin Turney, Rob Parrish, Andy Simmonett
                          and Daniel G. A. Smith
                              RHF Reference
                        1 Threads,    953 MiB Core
         ---------------------------------------------------------

  ==> Geometry <==

    Molecular point group: c1
    Full point group: C_inf_v

    Geometry (in Angstrom), charge = 1, multiplicity = 1:

       Center              X                  Y                   Z               Mass       
    ------------   -----------------  -----------------  -----------------  -----------------
         H            0.000000000000     0.000000000000    -0.386000000000     1.007825032230
         HE           0.000000000000     0.000000000000     0.386000000000     4.002603254130

  Running in c1 symmetry.

  Rotational constants: A = ************  B =     22.58120  C =     22.58120 [cm^-1]
  Rotational constants: A = ************  B = 676967.37530  C = 676967.37530 [MHz]
  Nuclear repulsion =    1.370925416243523

  Charge       = 1
  Multiplicity = 1
  Electrons    = 2
  Nalpha       = 1
  Nbeta        = 1

  ==> Algorithm <==

  SCF Algorithm Type is PK.
  DIIS enabled.
  MOM disabled.
  Fractional occupation disabled.
  Guess Type is SAD.
  Energy threshold   = 1.00e-10
  Density threshold  = 1.00e-10
  Integral threshold = 1.00e-12

  ==> Primary Basis <==

  -AO BASIS SET INFORMATION:
    Name                   = 6-31G
    Blend                  = 6-31G
    Total number of shells = 4
    Number of primitives   = 8
    Number of AO           = 4
    Number of SO           = 4
    Maximum AM             = 0
    Spherical Harmonics    = FALSE

  -Contraction Scheme:
    Atom   Type   All Primitives // Shells:
   ------ ------ --------------------------
       1     H     4s // 2s 
       2    HE     4s // 2s 

  ==> Integral Setup <==

  Using in-core PK algorithm.
   Calculation information:
      Number of atoms:                   2
      Number of AO shells:               4
      Number of primitives:              8
      Number of atomic orbitals:         4
      Number of basis functions:         4

      Integral cutoff                 1.00e-12
      Number of threads:                 1

  Performing in-core PK
  Using 110 doubles for integral storage.
  We computed 55 shell quartets total.
  Whereas there are 55 unique shell quartets.

  ==> DiskJK: Disk-Based J/K Matrices <==

    J tasked:                  Yes
    K tasked:                  Yes
    wK tasked:                  No
    Memory [MiB]:              715
    Schwarz Cutoff:          1E-12

    OpenMP threads:              1

  Minimum eigenvalue in the overlap matrix is 1.6084999674E-01.
  Reciprocal condition number of the overlap matrix is 6.1101689587E-02.
    Using symmetric orthogonalization.

  ==> Pre-Iterations <==

  SCF Guess: Superposition of Atomic Densities via on-the-fly atomic UHF (no occupation information).

   -------------------------
    Irrep   Nso     Nmo    
   -------------------------
     A          4       4 
   -------------------------
    Total       4       4
   -------------------------

  ==> Iterations <==

                        Total Energy        Delta E     RMS |[F,P]|

   @RHF iter SAD:    -3.47952509295406   -3.47953e+00   0.00000e+00 
   @RHF iter   1:    -2.89179510746885    5.87730e-01   4.56422e-02 DIIS/ADIIS
   @RHF iter   2:    -2.90949447568790   -1.76994e-02   6.16408e-03 DIIS/ADIIS
   @RHF iter   3:    -2.90985259125897   -3.58116e-04   4.39513e-04 DIIS/ADIIS
   @RHF iter   4:    -2.90985437750446   -1.78625e-06   2.25901e-06 DIIS
   @RHF iter   5:    -2.90985437754501   -4.05480e-11   8.95334e-08 DIIS
   @RHF iter   6:    -2.90985437754513   -1.13243e-13   1.83109e-09 DIIS
   @RHF iter   7:    -2.90985437754512    3.99680e-15   6.30542e-13 DIIS
  Energy and wave function converged.


  ==> Post-Iterations <==

    Orbital Energies [Eh]
    ---------------------

    Doubly Occupied:                                                      

       1A     -1.632772  

    Virtual:                                                              

       2A     -0.263114     3A      0.439397     4A      1.076325  

    Final Occupation by Irrep:
              A 
    DOCC [     1 ]
    NA   [     1 ]
    NB   [     1 ]

  @RHF Final Energy:    -2.90985437754512

   => Energetics <=

    Nuclear Repulsion Energy =              1.3709254162435234
    One-Electron Energy =                  -5.2960157980259357
    Two-Electron Energy =                   1.0152360042372905
    Total Energy =                         -2.9098543775451216

Computation Completed


Properties will be evaluated at   0.000000,   0.000000,   0.000000 [a0]

Properties computed using the SCF density matrix


 Multipole Moments:

 ------------------------------------------------------------------------------------
     Multipole            Electronic (a.u.)      Nuclear  (a.u.)        Total (a.u.)
 ------------------------------------------------------------------------------------

 L = 1.  Multiply by 2.5417464519 to convert [e a0] to [Debye]
 Dipole X            :          0.0000000            0.0000000            0.0000000
 Dipole Y            :          0.0000000            0.0000000            0.0000000
 Dipole Z            :         -1.0468469            0.7294343           -0.3174127
 Magnitude           :                                                    0.3174127

 ------------------------------------------------------------------------------------

*** tstop() called on gnode010.cluster at Sat Sep 13 17:01:27 2025
Module time:
	user time   =       0.13 seconds =       0.00 minutes
	system time =       0.01 seconds =       0.00 minutes
	total time  =          1 seconds =       0.02 minutes
Total time:
	user time   =       0.13 seconds =       0.00 minutes
	system time =       0.01 seconds =       0.00 minutes
	total time  =          1 seconds =       0.02 minutes
 MINTS: Wrapper to libmints.
   by Justin Turney

   Calculation information:
      Number of threads:                 1
      Number of atoms:                   2
      Number of AO shells:               4
      Number of SO shells:               4
      Number of primitives:              8
      Number of atomic orbitals:         4
      Number of basis functions:         4

      Number of irreps:                  1
      Integral cutoff                 1.00e-12
      Number of functions per irrep: [   4 ]

 OEINTS: Overlap, kinetic, potential, dipole, and quadrupole integrals
         stored in file 35.

      Computing two-electron integrals...done
      Computed 55 non-zero two-electron integrals.
        Stored in file 33.


         ---------------------------------------------------------
                          Configuration Interaction
                            (a 'D E T C I' module)

                 C. David Sherrill, Daniel G. A. Smith, and
                              Matt L. Leininger
         ---------------------------------------------------------

DAVIDSON update not available for OLSEN or MITRUSH iterators

   ==> Parameters <==

    EX LEVEL       =        2      H0 BLOCKSIZE  =     1000
    VAL EX LEVEL   =        0      H0 GUESS SIZE =     1000
    H0COUPLINGSIZE =        0      H0 COUPLING   =       NO
    MAXITER        =       24      NUM PRINT     =       20
    NUM ROOTS      =       16      ICORE         =        1
    PRINT LVL      =        2      FCI           =      YES
    R CONV         = 1.00e-04      MIXED         =      YES
    E CONV         = 1.00e-08      MIXED4        =      YES
    R4S            =       NO      REPL OTF      =       NO
    DIAG METHOD    =      RSP      FOLLOW ROOT   =        0
    PRECONDITIONER = DAVIDSON      UPDATE        = OLSEN
    S              =   0.0000      Ms0           =       NO
    GUESS VECTOR   =  H0BLOCK      OPENTYPE      =     NONE
    COLLAPSE SIZE  =        1      HD AVG        = EVANGELISTI
    MAX NUM VECS   =        0      REF SYM       =     AUTO
    IOPEN        =       NO

    EX ALLOW       =  1  1 
    STATE AVERAGE  =  0(1.00) 

   ==> CI Orbital and Space information <==

   ------------------------------------
               Space    Total     A
   ------------------------------------
                 Nso        4     4
                 Nmo        4     4
               Ndocc        1     1
               Nsocc        0     0
   ------------------------------------
              CI Spaces
   ------------------------------------
        Dropped DOCC        0     0
              Active        4     4
        Dropped UOCC        0     0
   ------------------------------------

   ==> Setting up CI strings <==

    There are 4 alpha and 4 beta strings
    The CI space requires 16 (1.60E+01) determinants and 1 blocks
    Total H0block size (including coupling): 16

   ==> Transforming CI integrals <==

	Presorting SO-basis two-electron integrals.
	Sorting File: SO Ints (nn|nn) nbuckets = 1
	Constructing frozen core operators
	Starting first half-transformation.
	h = 0; memfree         = 124999968
	h = 0; rows_per_bucket = 10
	h = 0; rows_left       = 0
	h = 0; nbuckets        = 1
	Sorting half-transformed integrals.
	First half integral transformation complete.
	Starting second half-transformation.
	h = 0; memfree         = 124999968
	h = 0; rows_per_bucket = 10
	h = 0; rows_left       = 0
	h = 0; nbuckets        = 1
	Two-electron integral transformation complete.

   ==> Starting CI iterations <==

    Exact Diagonalization Algorithm

   ==> Energetics <==

    SCF energy =           -2.909854377545122
    Total CI energy =      -2.932310749393184

   ==> DETCI root 0 information <==

    DETCI Root 0 energy =    -2.932310749393184

   The 16 most important determinants:

    *   1    0.996034  (    0,    0)  1AX 
    *   2   -0.047811  (    1,    1)  2AX 
    *   3   -0.044652  (    3,    3)  4AX 
    *   4   -0.034978  (    1,    3)  2AA 4AB 
    *   5   -0.034978  (    3,    1)  2AB 4AA 
    *   6   -0.016502  (    2,    2)  3AX 
    *   7   -0.015720  (    2,    1)  2AB 3AA 
    *   8   -0.015720  (    1,    2)  2AA 3AB 
    *   9    0.013309  (    1,    0)  1AB 2AA 
    *  10    0.013309  (    0,    1)  1AA 2AB 
    *  11    0.005605  (    0,    2)  1AA 3AB 
    *  12    0.005605  (    2,    0)  1AB 3AA 
    *  13   -0.001544  (    2,    3)  3AA 4AB 
    *  14   -0.001544  (    3,    2)  3AB 4AA 
    *  15    0.000487  (    0,    3)  1AA 4AB 
    *  16    0.000487  (    3,    0)  1AB 4AA 


   ==> DETCI root 1 information <==

    DETCI Root 1 energy =    -2.142097753112568

   The 16 most important determinants:

    *   1    0.685851  (    1,    0)  1AB 2AA 
    *   2   -0.685851  (    0,    1)  1AA 2AB 
    *   3   -0.121477  (    0,    2)  1AA 3AB 
    *   4    0.121477  (    2,    0)  1AB 3AA 
    *   5    0.101439  (    3,    0)  1AB 4AA 
    *   6   -0.101439  (    0,    3)  1AA 4AB 
    *   7    0.066445  (    3,    1)  2AB 4AA 
    *   8   -0.066445  (    1,    3)  2AA 4AB 
    *   9    0.010033  (    1,    2)  2AA 3AB 
    *  10   -0.010033  (    2,    1)  2AB 3AA 
    *  11    0.006776  (    3,    2)  3AB 4AA 
    *  12   -0.006776  (    2,    3)  3AA 4AB 


   ==> DETCI root 2 information <==

    DETCI Root 2 energy =    -1.964042841147986

   The 16 most important determinants:

    *   1   -0.682719  (    0,    1)  1AA 2AB 
    *   2   -0.682719  (    1,    0)  1AB 2AA 
    *   3    0.199508  (    1,    1)  2AX 
    *   4   -0.076121  (    0,    2)  1AA 3AB 
    *   5   -0.076121  (    2,    0)  1AB 3AA 
    *   6    0.073875  (    3,    1)  2AB 4AA 
    *   7    0.073875  (    1,    3)  2AA 4AB 
    *   8    0.033875  (    0,    0)  1AX 
    *   9   -0.030747  (    3,    3)  4AX 
    *  10    0.030745  (    1,    2)  2AA 3AB 
    *  11    0.030745  (    2,    1)  2AB 3AA 
    *  12    0.023079  (    2,    2)  3AX 
    *  13    0.015960  (    3,    2)  3AB 4AA 
    *  14    0.015960  (    2,    3)  3AA 4AB 
    *  15    0.015116  (    3,    0)  1AB 4AA 
    *  16    0.015116  (    0,    3)  1AA 4AB 


   ==> DETCI root 3 information <==

    DETCI Root 3 energy =    -1.415524844126483

   The 16 most important determinants:

    *   1   -0.686667  (    0,    2)  1AA 3AB 
    *   2    0.686667  (    2,    0)  1AB 3AA 
    *   3    0.111479  (    0,    1)  1AA 2AB 
    *   4   -0.111479  (    1,    0)  1AB 2AA 
    *   5    0.080538  (    1,    2)  2AA 3AB 
    *   6   -0.080538  (    2,    1)  2AB 3AA 
    *   7    0.069029  (    3,    2)  3AB 4AA 
    *   8   -0.069029  (    2,    3)  3AA 4AB 
    *   9    0.064550  (    0,    3)  1AA 4AB 
    *  10   -0.064550  (    3,    0)  1AB 4AA 
    *  11    0.025343  (    1,    3)  2AA 4AB 
    *  12   -0.025343  (    3,    1)  2AB 4AA 


   ==> DETCI root 4 information <==

    DETCI Root 4 energy =    -1.352826159810195

   The 16 most important determinants:

    *   1   -0.682785  (    2,    0)  1AB 3AA 
    *   2   -0.682785  (    0,    2)  1AA 3AB 
    *   3    0.125632  (    2,    1)  2AB 3AA 
    *   4    0.125632  (    1,    2)  2AA 3AB 
    *   5    0.096069  (    2,    3)  3AA 4AB 
    *   6    0.096069  (    3,    2)  3AB 4AA 
    *   7    0.088595  (    1,    0)  1AB 2AA 
    *   8    0.088595  (    0,    1)  1AA 2AB 
    *   9    0.032655  (    2,    2)  3AX 
    *  10    0.020147  (    1,    1)  2AX 
    *  11    0.012027  (    0,    0)  1AX 
    *  12    0.008914  (    3,    3)  4AX 
    *  13    0.007758  (    3,    1)  2AB 4AA 
    *  14    0.007758  (    1,    3)  2AA 4AB 
    *  15    0.005889  (    0,    3)  1AA 4AB 
    *  16    0.005889  (    3,    0)  1AB 4AA 


   ==> DETCI root 5 information <==

    DETCI Root 5 energy =    -0.996884577649889

   The 16 most important determinants:

    *   1   -0.693489  (    3,    0)  1AB 4AA 
    *   2    0.693489  (    0,    3)  1AA 4AB 
    *   3   -0.102868  (    0,    1)  1AA 2AB 
    *   4    0.102868  (    1,    0)  1AB 2AA 
    *   5    0.077461  (    3,    1)  2AB 4AA 
    *   6   -0.077461  (    1,    3)  2AA 4AB 
    *   7    0.041322  (    0,    2)  1AA 3AB 
    *   8   -0.041322  (    2,    0)  1AB 3AA 
    *   9    0.019864  (    2,    3)  3AA 4AB 
    *  10   -0.019864  (    3,    2)  3AB 4AA 
    *  11   -0.019729  (    1,    2)  2AA 3AB 
    *  12    0.019729  (    2,    1)  2AB 3AA 


   ==> DETCI root 6 information <==

    DETCI Root 6 energy =    -0.665420297979946

   The 16 most important determinants:

    *   1   -0.643545  (    0,    3)  1AA 4AB 
    *   2   -0.643545  (    3,    0)  1AB 4AA 
    *   3   -0.363185  (    1,    1)  2AX 
    *   4   -0.094589  (    3,    1)  2AB 4AA 
    *   5   -0.094589  (    1,    3)  2AA 4AB 
    *   6    0.083109  (    2,    2)  3AX 
    *   7   -0.074142  (    0,    1)  1AA 2AB 
    *   8   -0.074142  (    1,    0)  1AB 2AA 
    *   9    0.036009  (    1,    2)  2AA 3AB 
    *  10    0.036009  (    2,    1)  2AB 3AA 
    *  11    0.026818  (    3,    3)  4AX 
    *  12   -0.017609  (    0,    0)  1AX 
    *  13   -0.013398  (    0,    2)  1AA 3AB 
    *  14   -0.013398  (    2,    0)  1AB 3AA 
    *  15   -0.003036  (    2,    3)  3AA 4AB 
    *  16   -0.003036  (    3,    2)  3AB 4AA 


   ==> DETCI root 7 information <==

    DETCI Root 7 energy =    -0.575668807064619

   The 16 most important determinants:

    *   1    0.862799  (    1,    1)  2AX 
    *   2   -0.273973  (    0,    3)  1AA 4AB 
    *   3   -0.273973  (    3,    0)  1AB 4AA 
    *   4    0.132885  (    0,    1)  1AA 2AB 
    *   5    0.132885  (    1,    0)  1AB 2AA 
    *   6    0.124992  (    1,    2)  2AA 3AB 
    *   7    0.124992  (    2,    1)  2AB 3AA 
    *   8    0.119425  (    3,    1)  2AB 4AA 
    *   9    0.119425  (    1,    3)  2AA 4AB 
    *  10   -0.049850  (    2,    2)  3AX 
    *  11    0.049442  (    0,    0)  1AX 
    *  12    0.048870  (    2,    0)  1AB 3AA 
    *  13    0.048870  (    0,    2)  1AA 3AB 
    *  14   -0.017034  (    3,    2)  3AB 4AA 
    *  15   -0.017034  (    2,    3)  3AA 4AB 
    *  16    0.009048  (    3,    3)  4AX 


   ==> DETCI root 8 information <==

    DETCI Root 8 energy =    -0.087635609746606

   The 16 most important determinants:

    *   1   -0.649927  (    1,    2)  2AA 3AB 
    *   2    0.649927  (    2,    1)  2AB 3AA 
    *   3    0.208778  (    1,    3)  2AA 4AB 
    *   4   -0.208778  (    3,    1)  2AB 4AA 
    *   5   -0.161666  (    3,    2)  3AB 4AA 
    *   6    0.161666  (    2,    3)  3AA 4AB 
    *   7   -0.087148  (    0,    2)  1AA 3AB 
    *   8    0.087148  (    2,    0)  1AB 3AA 
    *   9   -0.016334  (    0,    1)  1AA 2AB 
    *  10    0.016334  (    1,    0)  1AB 2AA 
    *  11   -0.002970  (    3,    0)  1AB 4AA 
    *  12    0.002970  (    0,    3)  1AA 4AB 


   ==> DETCI root 9 information <==

    DETCI Root 9 energy =     0.081792989816063

   The 16 most important determinants:

    *   1    0.549825  (    2,    1)  2AB 3AA 
    *   2    0.549825  (    1,    2)  2AA 3AB 
    *   3   -0.405362  (    3,    1)  2AB 4AA 
    *   4   -0.405362  (    1,    3)  2AA 4AB 
    *   5    0.134119  (    2,    2)  3AX 
    *   6   -0.107872  (    3,    3)  4AX 
    *   7    0.095145  (    2,    0)  1AB 3AA 
    *   8    0.095145  (    0,    2)  1AA 3AB 
    *   9    0.092776  (    0,    3)  1AA 4AB 
    *  10    0.092776  (    3,    0)  1AB 4AA 
    *  11   -0.021211  (    0,    1)  1AA 2AB 
    *  12   -0.021211  (    1,    0)  1AB 2AA 
    *  13    0.016659  (    1,    1)  2AX 
    *  14   -0.014880  (    3,    2)  3AB 4AA 
    *  15   -0.014880  (    2,    3)  3AA 4AB 
    *  16   -0.013570  (    0,    0)  1AX 


   ==> DETCI root 10 information <==

    DETCI Root 10 energy =     0.217150182674892

   The 16 most important determinants:

    *   1    0.651812  (    1,    3)  2AA 4AB 
    *   2   -0.651812  (    3,    1)  2AB 4AA 
    *   3   -0.232133  (    2,    1)  2AB 3AA 
    *   4    0.232133  (    1,    2)  2AA 3AB 
    *   5   -0.101277  (    3,    2)  3AB 4AA 
    *   6    0.101277  (    2,    3)  3AA 4AB 
    *   7   -0.076229  (    0,    1)  1AA 2AB 
    *   8    0.076229  (    1,    0)  1AB 2AA 
    *   9    0.063136  (    0,    3)  1AA 4AB 
    *  10   -0.063136  (    3,    0)  1AB 4AA 
    *  11   -0.034661  (    2,    0)  1AB 3AA 
    *  12    0.034661  (    0,    2)  1AA 3AB 


   ==> DETCI root 11 information <==

    DETCI Root 11 energy =     0.442295207699648

   The 16 most important determinants:

    *   1    0.495137  (    1,    3)  2AA 4AB 
    *   2    0.495137  (    3,    1)  2AB 4AA 
    *   3    0.380409  (    1,    2)  2AA 3AB 
    *   4    0.380409  (    2,    1)  2AB 3AA 
    *   5   -0.258125  (    1,    1)  2AX 
    *   6    0.224122  (    2,    3)  3AA 4AB 
    *   7    0.224122  (    3,    2)  3AB 4AA 
    *   8    0.144640  (    3,    3)  4AX 
    *   9    0.105713  (    2,    0)  1AB 3AA 
    *  10    0.105713  (    0,    2)  1AA 3AB 
    *  11   -0.083987  (    2,    2)  3AX 
    *  12    0.038363  (    0,    0)  1AX 
    *  13    0.022998  (    1,    0)  1AB 2AA 
    *  14    0.022998  (    0,    1)  1AA 2AB 
    *  15    0.012504  (    0,    3)  1AA 4AB 
    *  16    0.012504  (    3,    0)  1AB 4AA 


   ==> DETCI root 12 information <==

    DETCI Root 12 energy =     0.698817046381271

   The 16 most important determinants:

    *   1    0.865252  (    2,    2)  3AX 
    *   2   -0.296843  (    3,    2)  3AB 4AA 
    *   3   -0.296843  (    2,    3)  3AA 4AB 
    *   4    0.186318  (    1,    3)  2AA 4AB 
    *   5    0.186318  (    3,    1)  2AB 4AA 
    *   6    0.030482  (    0,    3)  1AA 4AB 
    *   7    0.030482  (    3,    0)  1AB 4AA 
    *   8    0.029809  (    1,    0)  1AB 2AA 
    *   9    0.029809  (    0,    1)  1AA 2AB 
    *  10    0.026211  (    0,    0)  1AX 
    *  11    0.022520  (    1,    2)  2AA 3AB 
    *  12    0.022520  (    2,    1)  2AB 3AA 
    *  13   -0.010573  (    0,    2)  1AA 3AB 
    *  14   -0.010573  (    2,    0)  1AB 3AA 
    *  15   -0.010004  (    1,    1)  2AX 
    *  16    0.004171  (    3,    3)  4AX 


   ==> DETCI root 13 information <==

    DETCI Root 13 energy =     0.902075124082132

   The 16 most important determinants:

    *   1    0.677054  (    3,    2)  3AB 4AA 
    *   2   -0.677054  (    2,    3)  3AA 4AB 
    *   3    0.143161  (    1,    3)  2AA 4AB 
    *   4   -0.143161  (    3,    1)  2AB 4AA 
    *   5   -0.129356  (    1,    2)  2AA 3AB 
    *   6    0.129356  (    2,    1)  2AB 3AA 
    *   7    0.056813  (    0,    2)  1AA 3AB 
    *   8   -0.056813  (    2,    0)  1AB 3AA 
    *   9    0.024933  (    0,    3)  1AA 4AB 
    *  10   -0.024933  (    3,    0)  1AB 4AA 
    *  11    0.022823  (    1,    0)  1AB 2AA 
    *  12   -0.022823  (    0,    1)  1AA 2AB 


   ==> DETCI root 14 information <==

    DETCI Root 14 energy =     1.099155014845216

   The 16 most important determinants:

    *   1   -0.585964  (    2,    3)  3AA 4AB 
    *   2   -0.585964  (    3,    2)  3AB 4AA 
    *   3   -0.448508  (    2,    2)  3AX 
    *   4    0.205464  (    3,    3)  4AX 
    *   5    0.133541  (    2,    1)  2AB 3AA 
    *   6    0.133541  (    1,    2)  2AA 3AB 
    *   7   -0.097890  (    1,    1)  2AX 
    *   8    0.084416  (    1,    3)  2AA 4AB 
    *   9    0.084416  (    3,    1)  2AB 4AA 
    *  10   -0.069858  (    2,    0)  1AB 3AA 
    *  11   -0.069858  (    0,    2)  1AA 3AB 
    *  12   -0.017016  (    0,    1)  1AA 2AB 
    *  13   -0.017016  (    1,    0)  1AB 2AA 
    *  14    0.006646  (    0,    0)  1AX 
    *  15    0.004095  (    0,    3)  1AA 4AB 
    *  16    0.004095  (    3,    0)  1AB 4AA 


   ==> DETCI root 15 information <==

    DETCI Root 15 energy =     1.427315657520073

   The 16 most important determinants:

    *   1    0.959891  (    3,    3)  4AX 
    *   2   -0.136858  (    1,    3)  2AA 4AB 
    *   3   -0.136858  (    3,    1)  2AB 4AA 
    *   4    0.117787  (    2,    2)  3AX 
    *   5    0.091064  (    2,    3)  3AA 4AB 
    *   6    0.091064  (    3,    2)  3AB 4AA 
    *   7    0.067758  (    1,    1)  2AX 
    *   8    0.038490  (    0,    0)  1AX 
    *   9    0.028548  (    3,    0)  1AB 4AA 
    *  10    0.028548  (    0,    3)  1AA 4AB 
    *  11   -0.027312  (    2,    1)  2AB 3AA 
    *  12   -0.027312  (    1,    2)  2AA 3AB 
    *  13   -0.023590  (    1,    0)  1AB 2AA 
    *  14   -0.023590  (    0,    1)  1AA 2AB 
    *  15    0.013839  (    2,    0)  1AB 3AA 
    *  16    0.013839  (    0,    2)  1AA 3AB 

		 "A good bug is a dead bug" 

			 - Starship Troopers

		 "I didn't write FORTRAN.  That's the problem."

			 - Edward Valeev


Properties will be evaluated at   0.000000,   0.000000,   0.000000 [a0]

Properties computed using the DETCI density matrix


 Multipole Moments:

 ------------------------------------------------------------------------------------
     Multipole            Electronic (a.u.)      Nuclear  (a.u.)        Total (a.u.)
 ------------------------------------------------------------------------------------

 L = 1.  Multiply by 2.5417464519 to convert [e a0] to [Debye]
 Dipole X            :          0.0000000            0.0000000            0.0000000
 Dipole Y            :          0.0000000            0.0000000            0.0000000
 Dipole Z            :         -1.0018794            0.7294343           -0.2724451
 Magnitude           :                                                    0.2724451

 ------------------------------------------------------------------------------------


Properties will be evaluated at   0.000000,   0.000000,   0.000000 [a0]

Properties computed using the CI density matrix


 Multipole Moments:

 ------------------------------------------------------------------------------------
     Multipole            Electronic (a.u.)      Nuclear  (a.u.)        Total (a.u.)
 ------------------------------------------------------------------------------------

 L = 1.  Multiply by 2.5417464519 to convert [e a0] to [Debye]
 Dipole X            :          0.0000000            0.0000000            0.0000000
 Dipole Y            :          0.0000000            0.0000000            0.0000000
 Dipole Z            :         -1.0018794            0.7294343           -0.2724451
 Magnitude           :                                                    0.2724451

 ------------------------------------------------------------------------------------

   ===> CI properties for all CI roots <=== 


Properties computed using the CI ROOT 0 density matrix


 Multipole Moments:

 ------------------------------------------------------------------------------------
     Multipole            Electronic (a.u.)      Nuclear  (a.u.)        Total (a.u.)
 ------------------------------------------------------------------------------------

 L = 1.  Multiply by 2.5417464519 to convert [e a0] to [Debye]
 Dipole X            :          0.0000000            0.0000000            0.0000000
 Dipole Y            :          0.0000000            0.0000000            0.0000000
 Dipole Z            :         -1.0018794            0.7294343           -0.2724451
 Magnitude           :                                                    0.2724451

 ------------------------------------------------------------------------------------

Properties computed using the CI ROOT 1 density matrix


 Multipole Moments:

 ------------------------------------------------------------------------------------
     Multipole            Electronic (a.u.)      Nuclear  (a.u.)        Total (a.u.)
 ------------------------------------------------------------------------------------

 L = 1.  Multiply by 2.5417464519 to convert [e a0] to [Debye]
 Dipole X            :          0.0000000            0.0000000            0.0000000
 Dipole Y            :          0.0000000            0.0000000            0.0000000
 Dipole Z            :          0.3060318            0.7294343            1.0354661
 Magnitude           :                                                    1.0354661

 ------------------------------------------------------------------------------------

Properties computed using the CI ROOT 2 density matrix


 Multipole Moments:

 ------------------------------------------------------------------------------------
     Multipole            Electronic (a.u.)      Nuclear  (a.u.)        Total (a.u.)
 ------------------------------------------------------------------------------------

 L = 1.  Multiply by 2.5417464519 to convert [e a0] to [Debye]
 Dipole X            :          0.0000000            0.0000000            0.0000000
 Dipole Y            :          0.0000000            0.0000000            0.0000000
 Dipole Z            :          0.0699311            0.7294343            0.7993654
 Magnitude           :                                                    0.7993654

 ------------------------------------------------------------------------------------

Properties computed using the CI ROOT 3 density matrix


 Multipole Moments:

 ------------------------------------------------------------------------------------
     Multipole            Electronic (a.u.)      Nuclear  (a.u.)        Total (a.u.)
 ------------------------------------------------------------------------------------

 L = 1.  Multiply by 2.5417464519 to convert [e a0] to [Debye]
 Dipole X            :          0.0000000            0.0000000            0.0000000
 Dipole Y            :          0.0000000            0.0000000            0.0000000
 Dipole Z            :         -0.1324652            0.7294343            0.5969691
 Magnitude           :                                                    0.5969691

 ------------------------------------------------------------------------------------

Properties computed using the CI ROOT 4 density matrix


 Multipole Moments:

 ------------------------------------------------------------------------------------
     Multipole            Electronic (a.u.)      Nuclear  (a.u.)        Total (a.u.)
 ------------------------------------------------------------------------------------

 L = 1.  Multiply by 2.5417464519 to convert [e a0] to [Debye]
 Dipole X            :          0.0000000            0.0000000            0.0000000
 Dipole Y            :          0.0000000            0.0000000            0.0000000
 Dipole Z            :         -0.0680637            0.7294343            0.6613705
 Magnitude           :                                                    0.6613705

 ------------------------------------------------------------------------------------

Properties computed using the CI ROOT 5 density matrix


 Multipole Moments:

 ------------------------------------------------------------------------------------
     Multipole            Electronic (a.u.)      Nuclear  (a.u.)        Total (a.u.)
 ------------------------------------------------------------------------------------

 L = 1.  Multiply by 2.5417464519 to convert [e a0] to [Debye]
 Dipole X            :          0.0000000            0.0000000            0.0000000
 Dipole Y            :          0.0000000            0.0000000            0.0000000
 Dipole Z            :         -0.9692021            0.7294343           -0.2397678
 Magnitude           :                                                    0.2397678

 ------------------------------------------------------------------------------------

Properties computed using the CI ROOT 6 density matrix


 Multipole Moments:

 ------------------------------------------------------------------------------------
     Multipole            Electronic (a.u.)      Nuclear  (a.u.)        Total (a.u.)
 ------------------------------------------------------------------------------------

 L = 1.  Multiply by 2.5417464519 to convert [e a0] to [Debye]
 Dipole X            :          0.0000000            0.0000000            0.0000000
 Dipole Y            :          0.0000000            0.0000000            0.0000000
 Dipole Z            :         -0.4807508            0.7294343            0.2486835
 Magnitude           :                                                    0.2486835

 ------------------------------------------------------------------------------------

Properties computed using the CI ROOT 7 density matrix


 Multipole Moments:

 ------------------------------------------------------------------------------------
     Multipole            Electronic (a.u.)      Nuclear  (a.u.)        Total (a.u.)
 ------------------------------------------------------------------------------------

 L = 1.  Multiply by 2.5417464519 to convert [e a0] to [Debye]
 Dipole X            :          0.0000000            0.0000000            0.0000000
 Dipole Y            :          0.0000000            0.0000000            0.0000000
 Dipole Z            :          1.4424611            0.7294343            2.1718954
 Magnitude           :                                                    2.1718954

 ------------------------------------------------------------------------------------

Properties computed using the CI ROOT 8 density matrix


 Multipole Moments:

 ------------------------------------------------------------------------------------
     Multipole            Electronic (a.u.)      Nuclear  (a.u.)        Total (a.u.)
 ------------------------------------------------------------------------------------

 L = 1.  Multiply by 2.5417464519 to convert [e a0] to [Debye]
 Dipole X            :          0.0000000            0.0000000            0.0000000
 Dipole Y            :          0.0000000            0.0000000            0.0000000
 Dipole Z            :          0.8259507            0.7294343            1.5553850
 Magnitude           :                                                    1.5553850

 ------------------------------------------------------------------------------------

Properties computed using the CI ROOT 9 density matrix


 Multipole Moments:

 ------------------------------------------------------------------------------------
     Multipole            Electronic (a.u.)      Nuclear  (a.u.)        Total (a.u.)
 ------------------------------------------------------------------------------------

 L = 1.  Multiply by 2.5417464519 to convert [e a0] to [Debye]
 Dipole X            :          0.0000000            0.0000000            0.0000000
 Dipole Y            :          0.0000000            0.0000000            0.0000000
 Dipole Z            :          0.1933366            0.7294343            0.9227709
 Magnitude           :                                                    0.9227709

 ------------------------------------------------------------------------------------

Properties computed using the CI ROOT 10 density matrix


 Multipole Moments:

 ------------------------------------------------------------------------------------
     Multipole            Electronic (a.u.)      Nuclear  (a.u.)        Total (a.u.)
 ------------------------------------------------------------------------------------

 L = 1.  Multiply by 2.5417464519 to convert [e a0] to [Debye]
 Dipole X            :          0.0000000            0.0000000            0.0000000
 Dipole Y            :          0.0000000            0.0000000            0.0000000
 Dipole Z            :          1.1186610            0.7294343            1.8480953
 Magnitude           :                                                    1.8480953

 ------------------------------------------------------------------------------------

Properties computed using the CI ROOT 11 density matrix


 Multipole Moments:

 ------------------------------------------------------------------------------------
     Multipole            Electronic (a.u.)      Nuclear  (a.u.)        Total (a.u.)
 ------------------------------------------------------------------------------------

 L = 1.  Multiply by 2.5417464519 to convert [e a0] to [Debye]
 Dipole X            :          0.0000000            0.0000000            0.0000000
 Dipole Y            :          0.0000000            0.0000000            0.0000000
 Dipole Z            :          1.5666227            0.7294343            2.2960570
 Magnitude           :                                                    2.2960570

 ------------------------------------------------------------------------------------

Properties computed using the CI ROOT 12 density matrix


 Multipole Moments:

 ------------------------------------------------------------------------------------
     Multipole            Electronic (a.u.)      Nuclear  (a.u.)        Total (a.u.)
 ------------------------------------------------------------------------------------

 L = 1.  Multiply by 2.5417464519 to convert [e a0] to [Debye]
 Dipole X            :          0.0000000            0.0000000            0.0000000
 Dipole Y            :          0.0000000            0.0000000            0.0000000
 Dipole Z            :         -0.0068300            0.7294343            0.7226043
 Magnitude           :                                                    0.7226043

 ------------------------------------------------------------------------------------

Properties computed using the CI ROOT 13 density matrix


 Multipole Moments:

 ------------------------------------------------------------------------------------
     Multipole            Electronic (a.u.)      Nuclear  (a.u.)        Total (a.u.)
 ------------------------------------------------------------------------------------

 L = 1.  Multiply by 2.5417464519 to convert [e a0] to [Debye]
 Dipole X            :          0.0000000            0.0000000            0.0000000
 Dipole Y            :          0.0000000            0.0000000            0.0000000
 Dipole Z            :          0.1749273            0.7294343            0.9043616
 Magnitude           :                                                    0.9043616

 ------------------------------------------------------------------------------------

Properties computed using the CI ROOT 14 density matrix


 Multipole Moments:

 ------------------------------------------------------------------------------------
     Multipole            Electronic (a.u.)      Nuclear  (a.u.)        Total (a.u.)
 ------------------------------------------------------------------------------------

 L = 1.  Multiply by 2.5417464519 to convert [e a0] to [Debye]
 Dipole X            :          0.0000000            0.0000000            0.0000000
 Dipole Y            :          0.0000000            0.0000000            0.0000000
 Dipole Z            :          1.0182183            0.7294343            1.7476526
 Magnitude           :                                                    1.7476526

 ------------------------------------------------------------------------------------

Properties computed using the CI ROOT 15 density matrix


 Multipole Moments:

 ------------------------------------------------------------------------------------
     Multipole            Electronic (a.u.)      Nuclear  (a.u.)        Total (a.u.)
 ------------------------------------------------------------------------------------

 L = 1.  Multiply by 2.5417464519 to convert [e a0] to [Debye]
 Dipole X            :          0.0000000            0.0000000            0.0000000
 Dipole Y            :          0.0000000            0.0000000            0.0000000
 Dipole Z            :         -0.5265402            0.7294343            0.2028941
 Magnitude           :                                                    0.2028941

 ------------------------------------------------------------------------------------

   ===> CI properties for all CI transition density matrices <=== 


Properties computed using the CI ROOT 0 -> ROOT 1 density matrix


Transition Multipole Moments:

 ------------------------------------------------------------------------------------
     Multipole            Electronic (a.u.)      Nuclear  (a.u.)        Total (a.u.)
 ------------------------------------------------------------------------------------

 L = 1.  Multiply by 2.5417464519 to convert [e a0] to [Debye]
 Dipole X            :          0.0000000            0.0000000            0.0000000
 Dipole Y            :          0.0000000            0.0000000            0.0000000
 Dipole Z            :          0.9214391            0.0000000            0.9214391
 Magnitude           :                                                    0.9214391

 ------------------------------------------------------------------------------------

Properties computed using the CI ROOT 0 -> ROOT 2 density matrix


Transition Multipole Moments:

 ------------------------------------------------------------------------------------
     Multipole            Electronic (a.u.)      Nuclear  (a.u.)        Total (a.u.)
 ------------------------------------------------------------------------------------

 L = 1.  Multiply by 2.5417464519 to convert [e a0] to [Debye]
 Dipole X            :          0.0000000            0.0000000            0.0000000
 Dipole Y            :          0.0000000            0.0000000            0.0000000
 Dipole Z            :         -0.8191672            0.0000000           -0.8191672
 Magnitude           :                                                    0.8191672

 ------------------------------------------------------------------------------------

Properties computed using the CI ROOT 0 -> ROOT 3 density matrix


Transition Multipole Moments:

 ------------------------------------------------------------------------------------
     Multipole            Electronic (a.u.)      Nuclear  (a.u.)        Total (a.u.)
 ------------------------------------------------------------------------------------

 L = 1.  Multiply by 2.5417464519 to convert [e a0] to [Debye]
 Dipole X            :          0.0000000            0.0000000            0.0000000
 Dipole Y            :          0.0000000            0.0000000            0.0000000
 Dipole Z            :          0.3678862            0.0000000            0.3678862
 Magnitude           :                                                    0.3678862

 ------------------------------------------------------------------------------------

Properties computed using the CI ROOT 0 -> ROOT 4 density matrix


Transition Multipole Moments:

 ------------------------------------------------------------------------------------
     Multipole            Electronic (a.u.)      Nuclear  (a.u.)        Total (a.u.)
 ------------------------------------------------------------------------------------

 L = 1.  Multiply by 2.5417464519 to convert [e a0] to [Debye]
 Dipole X            :          0.0000000            0.0000000            0.0000000
 Dipole Y            :          0.0000000            0.0000000            0.0000000
 Dipole Z            :         -0.3817928            0.0000000           -0.3817928
 Magnitude           :                                                    0.3817928

 ------------------------------------------------------------------------------------

Properties computed using the CI ROOT 0 -> ROOT 5 density matrix


Transition Multipole Moments:

 ------------------------------------------------------------------------------------
     Multipole            Electronic (a.u.)      Nuclear  (a.u.)        Total (a.u.)
 ------------------------------------------------------------------------------------

 L = 1.  Multiply by 2.5417464519 to convert [e a0] to [Debye]
 Dipole X            :          0.0000000            0.0000000            0.0000000
 Dipole Y            :          0.0000000            0.0000000            0.0000000
 Dipole Z            :          0.0979860            0.0000000            0.0979860
 Magnitude           :                                                    0.0979860

 ------------------------------------------------------------------------------------

Properties computed using the CI ROOT 0 -> ROOT 6 density matrix


Transition Multipole Moments:

 ------------------------------------------------------------------------------------
     Multipole            Electronic (a.u.)      Nuclear  (a.u.)        Total (a.u.)
 ------------------------------------------------------------------------------------

 L = 1.  Multiply by 2.5417464519 to convert [e a0] to [Debye]
 Dipole X            :          0.0000000            0.0000000            0.0000000
 Dipole Y            :          0.0000000            0.0000000            0.0000000
 Dipole Z            :         -0.0002474            0.0000000           -0.0002474
 Magnitude           :                                                    0.0002474

 ------------------------------------------------------------------------------------

Properties computed using the CI ROOT 0 -> ROOT 7 density matrix


Transition Multipole Moments:

 ------------------------------------------------------------------------------------
     Multipole            Electronic (a.u.)      Nuclear  (a.u.)        Total (a.u.)
 ------------------------------------------------------------------------------------

 L = 1.  Multiply by 2.5417464519 to convert [e a0] to [Debye]
 Dipole X            :          0.0000000            0.0000000            0.0000000
 Dipole Y            :          0.0000000            0.0000000            0.0000000
 Dipole Z            :          0.0937117            0.0000000            0.0937117
 Magnitude           :                                                    0.0937117

 ------------------------------------------------------------------------------------

Properties computed using the CI ROOT 0 -> ROOT 8 density matrix


Transition Multipole Moments:

 ------------------------------------------------------------------------------------
     Multipole            Electronic (a.u.)      Nuclear  (a.u.)        Total (a.u.)
 ------------------------------------------------------------------------------------

 L = 1.  Multiply by 2.5417464519 to convert [e a0] to [Debye]
 Dipole X            :          0.0000000            0.0000000            0.0000000
 Dipole Y            :          0.0000000            0.0000000            0.0000000
 Dipole Z            :          0.0524713            0.0000000            0.0524713
 Magnitude           :                                                    0.0524713

 ------------------------------------------------------------------------------------

Properties computed using the CI ROOT 0 -> ROOT 9 density matrix


Transition Multipole Moments:

 ------------------------------------------------------------------------------------
     Multipole            Electronic (a.u.)      Nuclear  (a.u.)        Total (a.u.)
 ------------------------------------------------------------------------------------

 L = 1.  Multiply by 2.5417464519 to convert [e a0] to [Debye]
 Dipole X            :          0.0000000            0.0000000            0.0000000
 Dipole Y            :          0.0000000            0.0000000            0.0000000
 Dipole Z            :          0.0242570            0.0000000            0.0242570
 Magnitude           :                                                    0.0242570

 ------------------------------------------------------------------------------------

Properties computed using the CI ROOT 0 -> ROOT 10 density matrix


Transition Multipole Moments:

 ------------------------------------------------------------------------------------
     Multipole            Electronic (a.u.)      Nuclear  (a.u.)        Total (a.u.)
 ------------------------------------------------------------------------------------

 L = 1.  Multiply by 2.5417464519 to convert [e a0] to [Debye]
 Dipole X            :          0.0000000            0.0000000            0.0000000
 Dipole Y            :          0.0000000            0.0000000            0.0000000
 Dipole Z            :          0.0104784            0.0000000            0.0104784
 Magnitude           :                                                    0.0104784

 ------------------------------------------------------------------------------------

Properties computed using the CI ROOT 0 -> ROOT 11 density matrix


Transition Multipole Moments:

 ------------------------------------------------------------------------------------
     Multipole            Electronic (a.u.)      Nuclear  (a.u.)        Total (a.u.)
 ------------------------------------------------------------------------------------

 L = 1.  Multiply by 2.5417464519 to convert [e a0] to [Debye]
 Dipole X            :          0.0000000            0.0000000            0.0000000
 Dipole Y            :          0.0000000            0.0000000            0.0000000
 Dipole Z            :          0.0456795            0.0000000            0.0456795
 Magnitude           :                                                    0.0456795

 ------------------------------------------------------------------------------------

Properties computed using the CI ROOT 0 -> ROOT 12 density matrix


Transition Multipole Moments:

 ------------------------------------------------------------------------------------
     Multipole            Electronic (a.u.)      Nuclear  (a.u.)        Total (a.u.)
 ------------------------------------------------------------------------------------

 L = 1.  Multiply by 2.5417464519 to convert [e a0] to [Debye]
 Dipole X            :          0.0000000            0.0000000            0.0000000
 Dipole Y            :          0.0000000            0.0000000            0.0000000
 Dipole Z            :          0.0111542            0.0000000            0.0111542
 Magnitude           :                                                    0.0111542

 ------------------------------------------------------------------------------------

Properties computed using the CI ROOT 0 -> ROOT 13 density matrix


Transition Multipole Moments:

 ------------------------------------------------------------------------------------
     Multipole            Electronic (a.u.)      Nuclear  (a.u.)        Total (a.u.)
 ------------------------------------------------------------------------------------

 L = 1.  Multiply by 2.5417464519 to convert [e a0] to [Debye]
 Dipole X            :          0.0000000            0.0000000            0.0000000
 Dipole Y            :          0.0000000            0.0000000            0.0000000
 Dipole Z            :         -0.0092935            0.0000000           -0.0092935
 Magnitude           :                                                    0.0092935

 ------------------------------------------------------------------------------------

Properties computed using the CI ROOT 0 -> ROOT 14 density matrix


Transition Multipole Moments:

 ------------------------------------------------------------------------------------
     Multipole            Electronic (a.u.)      Nuclear  (a.u.)        Total (a.u.)
 ------------------------------------------------------------------------------------

 L = 1.  Multiply by 2.5417464519 to convert [e a0] to [Debye]
 Dipole X            :          0.0000000            0.0000000            0.0000000
 Dipole Y            :          0.0000000            0.0000000            0.0000000
 Dipole Z            :         -0.0190426            0.0000000           -0.0190426
 Magnitude           :                                                    0.0190426

 ------------------------------------------------------------------------------------

Properties computed using the CI ROOT 0 -> ROOT 15 density matrix


Transition Multipole Moments:

 ------------------------------------------------------------------------------------
     Multipole            Electronic (a.u.)      Nuclear  (a.u.)        Total (a.u.)
 ------------------------------------------------------------------------------------

 L = 1.  Multiply by 2.5417464519 to convert [e a0] to [Debye]
 Dipole X            :          0.0000000            0.0000000            0.0000000
 Dipole Y            :          0.0000000            0.0000000            0.0000000
 Dipole Z            :          0.0007169            0.0000000            0.0007169
 Magnitude           :                                                    0.0007169

 ------------------------------------------------------------------------------------
  ## AO Mux (Symmetry 0) ##
  Irrep: 1 Size: 4 x 4

                 1                   2                   3                   4

    1     0.00000000000000     0.00000000000000     0.00000000000000     0.00000000000000
    2     0.00000000000000     0.00000000000000     0.00000000000000     0.00000000000000
    3     0.00000000000000     0.00000000000000     0.00000000000000     0.00000000000000
    4     0.00000000000000     0.00000000000000     0.00000000000000     0.00000000000000



  ## AO Muy (Symmetry 0) ##
  Irrep: 1 Size: 4 x 4

                 1                   2                   3                   4

    1     0.00000000000000     0.00000000000000     0.00000000000000     0.00000000000000
    2     0.00000000000000     0.00000000000000     0.00000000000000     0.00000000000000
    3     0.00000000000000     0.00000000000000     0.00000000000000     0.00000000000000
    4     0.00000000000000     0.00000000000000     0.00000000000000     0.00000000000000



  ## AO Muz (Symmetry 0) ##
  Irrep: 1 Size: 4 x 4

                 1                   2                   3                   4

    1     0.72943428442672     0.48018078995363    -0.06649052713651     0.16291841013117
    2     0.48018078995363     0.72943428442672    -0.19241535006026    -0.16208271113832
    3    -0.06649052713651    -0.19241535006026    -0.72943428442672    -0.46256910197892
    4     0.16291841013117    -0.16208271113832    -0.46256910197892    -0.72943428442672




    Psi4 stopped on: Saturday, 13 September 2025 05:01PM
    Psi4 wall time for execution: 0:00:00.33

*** Psi4 exiting successfully. Buy a developer a beer!
