
    -----------------------------------------------------------------------
          Psi4: An Open-Source Ab Initio Electronic Structure Package
                               Psi4 1.9.1 release

                         Git: Rev {} zzzzzzz 


    D. G. A. Smith, L. A. Burns, A. C. Simmonett, R. M. Parrish,
    M. C. Schieber, R. Galvelis, P. Kraus, H. Kruse, R. Di Remigio,
    A. Alenaizan, A. M. James, S. Lehtola, J. P. Misiewicz, M. Scheurer,
    R. A. Shaw, J. B. Schriber, Y. Xie, Z. L. Glick, D. A. Sirianni,
    J. S. O'Brien, J. M. Waldrop, A. Kumar, E. G. Hohenstein,
    B. P. Pritchard, B. R. Brooks, H. F. Schaefer III, A. Yu. Sokolov,
    K. Patkowski, A. E. DePrince III, U. Bozkaya, R. A. King,
    F. A. Evangelista, J. M. Turney, T. D. Crawford, C. D. Sherrill,
    J. Chem. Phys. 152(18) 184108 (2020). https://doi.org/10.1063/5.0006002

                            Additional Code Authors
    E. T. Seidl, C. L. Janssen, E. F. Valeev, M. L. Leininger,
    J. F. Gonthier, R. M. Richard, H. R. McAlexander, M. Saitow, X. Wang,
    P. Verma, M. H. Lechner, A. Jiang, S. Behnle, A. G. Heide,
    M. F. Herbst, and D. L. Poole

             Previous Authors, Complete List of Code Contributors,
                       and Citations for Specific Modules
    https://github.com/psi4/psi4/blob/master/codemeta.json
    https://github.com/psi4/psi4/graphs/contributors
    http://psicode.org/psi4manual/master/introduction.html#citing-psifour

    -----------------------------------------------------------------------


    Psi4 started on: Sunday, 14 September 2025 12:24PM

    Process ID: 1966357
    Host:       gnode010.cluster
    PSIDATADIR: /home/hbhat/psi4conda/share/psi4
    Memory:     500.0 MiB
    Threads:    1
    
  ==> Input File <==

--------------------------------------------------------------------------
memory 10 gb

molecule lih {
H  0.       0.      -0.765
Li 0.       0.       0.765
symmetry c1
no_com
no_reorient
}

set {
    reference rhf
    basis sto-3g
    ms0 false
    fci true
    diag_method rsp
    num_roots 225
    num_dets_print 225
    print 2
    dipmom true
    opdm true
    tdm true
}

thisenergy, ciwfn = prop('detci', properties=['DIPOLE', 'TRANSITION_DIPOLE'], return_wfn=True)

mints = MintsHelper(ciwfn.basisset())

AOdip = mints.ao_dipole()
AOdip[0].print_out()
AOdip[1].print_out()
AOdip[2].print_out()

# MO coefficients
C = ciwfn.Ca().to_array()

# overlap matrix
S = ciwfn.S().to_array()

print("Overlap test:")
n = S.shape[0]
print(np.mean(np.abs(C.T @ S @ C - np.eye(n))))

# z-direction AO dipole moment matrix
AOdipmat = AOdip[2].to_array()
MOdipmat = C.T @ AOdipmat @ C

# set CI size
cisize = 225

# grab the Hamiltonian
test = psi4.core.variables()
ham = []
for j in range(cisize):
    ham.append( test['CI ROOT '+str(j)+' TOTAL ENERGY'] )
ham = np.array(ham)

print("Diagonalized Hamiltonian:")
print(ham)

# initialize CI dipole moment matrix in z direction
CIdimatzMO = np.zeros((cisize,cisize))
CIdimatzAO = np.zeros((cisize,cisize))
# initialize B tensor
Bten = np.zeros((cisize, cisize, n, n))
for i in range(cisize):
    for j in range(cisize):
        ciop_dm = ciwfn.get_opdm(i,j,'SUM',True)
        # store this in Bten
        Bten[i,j,:,:] = ciop_dm.to_array()
        # density matrix: change basis from MO to AO
        dmAO = C @ ciop_dm.to_array() @ C.T
        # compute this particular density matrix element
        CIdimatzMO[i, j] = np.trace( ciop_dm.to_array() @ MOdipmat )
        CIdimatzAO[i, j] = np.trace( dmAO @ AOdipmat )

print("Difference between CI basis dipole moment matrices computed via AO vs MO:")
print(np.mean(np.abs(CIdimatzMO - CIdimatzAO)))

# reshape OPDMs into B tensor

np.savez('./fci_lih_sto-3g.npz',C=C,S=S,AOdipmat=AOdipmat,CIdimatz=CIdimatzMO,Bten=Bten,ham=ham)

# for debugging purposes:
# Bmat = Bten.reshape((cisize**2, n**2))
# Bmat[np.abs(Bmat) < 1e-14] = 0.0
# print(Bmat)--------------------------------------------------------------------------

  Memory set to   9.313 GiB by Python driver.
   => Libint2 <=

    Primary   basis highest AM E, G, H:  6, 6, 3
    Auxiliary basis highest AM E, G, H:  7, 7, 4
    Onebody   basis highest AM E, G, H:  -, -, -
    Solid Harmonics ordering:            Gaussian

*** tstart() called on gnode010.cluster
*** at Sun Sep 14 12:24:19 2025

   => Loading Basis Set <=

    Name: STO-3G
    Role: ORBITAL
    Keyword: BASIS
    atoms 1 entry H          line    19 file /home/hbhat/psi4conda/share/psi4/basis/sto-3g.gbs 
    atoms 2 entry LI         line    31 file /home/hbhat/psi4conda/share/psi4/basis/sto-3g.gbs 


         ---------------------------------------------------------
                                   SCF
               by Justin Turney, Rob Parrish, Andy Simmonett
                          and Daniel G. A. Smith
                              RHF Reference
                        1 Threads,   9536 MiB Core
         ---------------------------------------------------------

  ==> Geometry <==

    Molecular point group: c1
    Full point group: C_inf_v

    Geometry (in Angstrom), charge = 0, multiplicity = 1:

       Center              X                  Y                   Z               Mass       
    ------------   -----------------  -----------------  -----------------  -----------------
         H            0.000000000000     0.000000000000    -0.765000000000     1.007825032230
         LI           0.000000000000     0.000000000000     0.765000000000     7.016003436600

  Running in c1 symmetry.

  Rotational constants: A = ************  B =      3.58998  C =      3.58998 [cm^-1]
  Rotational constants: A = ************  B = 107624.88320  C = 107624.88320 [MHz]
  Nuclear repulsion =    1.037602373862745

  Charge       = 0
  Multiplicity = 1
  Electrons    = 4
  Nalpha       = 2
  Nbeta        = 2

  ==> Algorithm <==

  SCF Algorithm Type is PK.
  DIIS enabled.
  MOM disabled.
  Fractional occupation disabled.
  Guess Type is SAD.
  Energy threshold   = 1.00e-10
  Density threshold  = 1.00e-10
  Integral threshold = 1.00e-12

  ==> Primary Basis <==

  -AO BASIS SET INFORMATION:
    Name                   = STO-3G
    Blend                  = STO-3G
    Total number of shells = 4
    Number of primitives   = 12
    Number of AO           = 6
    Number of SO           = 6
    Maximum AM             = 1
    Spherical Harmonics    = TRUE

  -Contraction Scheme:
    Atom   Type   All Primitives // Shells:
   ------ ------ --------------------------
       1     H     3s // 1s 
       2    LI     6s 3p // 2s 1p 

  ==> Integral Setup <==

  Using in-core PK algorithm.
   Calculation information:
      Number of atoms:                   2
      Number of AO shells:               4
      Number of primitives:             12
      Number of atomic orbitals:         6
      Number of basis functions:         6

      Integral cutoff                 1.00e-12
      Number of threads:                 1

  Performing in-core PK
  Using 462 doubles for integral storage.
  We computed 55 shell quartets total.
  Whereas there are 55 unique shell quartets.

  ==> DiskJK: Disk-Based J/K Matrices <==

    J tasked:                  Yes
    K tasked:                  Yes
    wK tasked:                  No
    Memory [MiB]:             7152
    Schwarz Cutoff:          1E-12

    OpenMP threads:              1

  Minimum eigenvalue in the overlap matrix is 3.2761537264E-01.
  Reciprocal condition number of the overlap matrix is 1.9190516136E-01.
    Using symmetric orthogonalization.

  ==> Pre-Iterations <==

  SCF Guess: Superposition of Atomic Densities via on-the-fly atomic UHF (no occupation information).

   -------------------------
    Irrep   Nso     Nmo    
   -------------------------
     A          6       6 
   -------------------------
    Total       6       6
   -------------------------

  ==> Iterations <==

                        Total Energy        Delta E     RMS |[F,P]|

   @RHF iter SAD:    -7.45494385182253   -7.45494e+00   0.00000e+00 
   @RHF iter   1:    -7.84639961810780   -3.91456e-01   1.83165e-02 DIIS/ADIIS
   @RHF iter   2:    -7.86292472464723   -1.65251e-02   1.83296e-03 DIIS/ADIIS
   @RHF iter   3:    -7.86324261622178   -3.17892e-04   5.67274e-04 DIIS/ADIIS
   @RHF iter   4:    -7.86330697143403   -6.43552e-05   3.32016e-05 DIIS
   @RHF iter   5:    -7.86330711902807   -1.47594e-07   1.55457e-06 DIIS
   @RHF iter   6:    -7.86330711928512   -2.57044e-10   2.39024e-08 DIIS
   @RHF iter   7:    -7.86330711928514   -2.13163e-14   1.85928e-09 DIIS
   @RHF iter   8:    -7.86330711928513    3.55271e-15   5.83701e-11 DIIS
  Energy and wave function converged.


  ==> Post-Iterations <==

    Orbital Energies [Eh]
    ---------------------

    Doubly Occupied:                                                      

       1A     -2.347321     2A     -0.291129  

    Virtual:                                                              

       3A      0.078786     4A      0.163837     5A      0.163837  
       6A      0.566644  

    Final Occupation by Irrep:
              A 
    DOCC [     2 ]
    NA   [     2 ]
    NB   [     2 ]

  @RHF Final Energy:    -7.86330711928513

   => Energetics <=

    Nuclear Repulsion Energy =              1.0376023738627451
    One-Electron Energy =                 -12.5249197401365127
    Two-Electron Energy =                   3.6240102469886346
    Total Energy =                         -7.8633071192851336

Computation Completed


Properties will be evaluated at   0.000000,   0.000000,   0.000000 [a0]

Properties computed using the SCF density matrix


 Multipole Moments:

 ------------------------------------------------------------------------------------
     Multipole            Electronic (a.u.)      Nuclear  (a.u.)        Total (a.u.)
 ------------------------------------------------------------------------------------

 L = 1.  Multiply by 2.5417464519 to convert [e a0] to [Debye]
 Dipole X            :          0.0000000            0.0000000            0.0000000
 Dipole Y            :          0.0000000            0.0000000            0.0000000
 Dipole Z            :         -0.9859648            2.8912810            1.9053162
 Magnitude           :                                                    1.9053162

 ------------------------------------------------------------------------------------

*** tstop() called on gnode010.cluster at Sun Sep 14 12:24:19 2025
Module time:
	user time   =       0.14 seconds =       0.00 minutes
	system time =       0.02 seconds =       0.00 minutes
	total time  =          0 seconds =       0.00 minutes
Total time:
	user time   =       0.14 seconds =       0.00 minutes
	system time =       0.02 seconds =       0.00 minutes
	total time  =          0 seconds =       0.00 minutes
 MINTS: Wrapper to libmints.
   by Justin Turney

   Calculation information:
      Number of threads:                 1
      Number of atoms:                   2
      Number of AO shells:               4
      Number of SO shells:               4
      Number of primitives:             12
      Number of atomic orbitals:         6
      Number of basis functions:         6

      Number of irreps:                  1
      Integral cutoff                 1.00e-12
      Number of functions per irrep: [   6 ]

 OEINTS: Overlap, kinetic, potential, dipole, and quadrupole integrals
         stored in file 35.

      Computing two-electron integrals...done
      Computed 83 non-zero two-electron integrals.
        Stored in file 33.


         ---------------------------------------------------------
                          Configuration Interaction
                            (a 'D E T C I' module)

                 C. David Sherrill, Daniel G. A. Smith, and
                              Matt L. Leininger
         ---------------------------------------------------------

DAVIDSON update not available for OLSEN or MITRUSH iterators

   ==> Parameters <==

    EX LEVEL       =        4      H0 BLOCKSIZE  =     1000
    VAL EX LEVEL   =        0      H0 GUESS SIZE =     1000
    H0COUPLINGSIZE =        0      H0 COUPLING   =       NO
    MAXITER        =       24      NUM PRINT     =      225
    NUM ROOTS      =      225      ICORE         =        1
    PRINT LVL      =        2      FCI           =      YES
    R CONV         = 1.00e-04      MIXED         =      YES
    E CONV         = 1.00e-08      MIXED4        =      YES
    R4S            =       NO      REPL OTF      =       NO
    DIAG METHOD    =      RSP      FOLLOW ROOT   =        0
    PRECONDITIONER = DAVIDSON      UPDATE        = OLSEN
    S              =   0.0000      Ms0           =       NO
    GUESS VECTOR   =  H0BLOCK      OPENTYPE      =     NONE
    COLLAPSE SIZE  =        1      HD AVG        = EVANGELISTI
    MAX NUM VECS   =        0      REF SYM       =     AUTO
    IOPEN        =       NO

    EX ALLOW       =  1  1  1  1 
    STATE AVERAGE  =  0(1.00) 

   ==> CI Orbital and Space information <==

   ------------------------------------
               Space    Total     A
   ------------------------------------
                 Nso        6     6
                 Nmo        6     6
               Ndocc        2     2
               Nsocc        0     0
   ------------------------------------
              CI Spaces
   ------------------------------------
        Dropped DOCC        0     0
              Active        6     6
        Dropped UOCC        0     0
   ------------------------------------

   ==> Setting up CI strings <==

    There are 15 alpha and 15 beta strings
    The CI space requires 225 (2.25E+02) determinants and 1 blocks
    Total H0block size (including coupling): 225

   ==> Transforming CI integrals <==

	Presorting SO-basis two-electron integrals.
	Sorting File: SO Ints (nn|nn) nbuckets = 1
	Constructing frozen core operators
	Starting first half-transformation.
	h = 0; memfree         = 1249999928
	h = 0; rows_per_bucket = 21
	h = 0; rows_left       = 0
	h = 0; nbuckets        = 1
	Sorting half-transformed integrals.
	First half integral transformation complete.
	Starting second half-transformation.
	h = 0; memfree         = 1249999928
	h = 0; rows_per_bucket = 21
	h = 0; rows_left       = 0
	h = 0; nbuckets        = 1
	Two-electron integral transformation complete.

   ==> Starting CI iterations <==

    Exact Diagonalization Algorithm

   ==> Energetics <==

    SCF energy =           -7.863307119285134
    Total CI energy =      -7.882709612149007

   ==> DETCI root 0 information <==

    DETCI Root 0 energy =    -7.882709612149007

   The 225 most important determinants:

    *   1   -0.988174  (    0,    0)  1AX 2AX 
    *   2    0.109045  (   10,   10)  1AX 6AX 
    *   3    0.056001  (    1,   10)  1AX 3AA 6AB 
    *   4    0.056001  (   10,    1)  1AX 3AB 6AA 
    *   5    0.036610  (    1,    0)  1AX 2AB 3AA 
    *   6    0.036610  (    0,    1)  1AX 2AA 3AB 
    *   7    0.031912  (    1,    1)  1AX 3AX 
    *   8    0.027946  (    3,    3)  1AX 4AX 
    *   9    0.027946  (    6,    6)  1AX 5AX 
    *  10    0.003760  (    2,    2)  2AX 3AX 
    *  11   -0.003215  (    0,   10)  1AX 2AA 6AB 
    *  12   -0.003215  (   10,    0)  1AX 2AB 6AA 
    *  13   -0.003111  (    4,    3)  1AB 2AA 4AX 
    *  14   -0.003111  (    3,    4)  1AA 2AB 4AX 
    *  15   -0.003111  (    6,    7)  1AA 2AB 5AX 
    *  16   -0.003111  (    7,    6)  1AB 2AA 5AX 
    *  17    0.001795  (    4,    4)  2AX 4AX 
    *  18    0.001795  (    7,    7)  2AX 5AX 
    *  19    0.000923  (    1,   11)  1AA 2AB 3AA 6AB 
    *  20    0.000923  (   11,    1)  1AB 2AA 3AB 6AA 
    *  21    0.000921  (   11,   11)  2AX 6AX 
    *  22    0.000865  (   12,    0)  1AB 2AB 3AA 6AA 
    *  23    0.000865  (    0,   12)  1AA 2AA 3AB 6AB 
    *  24    0.000807  (   13,    3)  1AB 4AX 6AA 
    *  25    0.000807  (    3,   13)  1AA 4AX 6AB 
    *  26    0.000807  (    6,   14)  1AA 5AX 6AB 
    *  27    0.000807  (   14,    6)  1AB 5AX 6AA 
    *  28   -0.000489  (   11,    0)  1AB 2AX 6AA 
    *  29   -0.000489  (    0,   11)  1AA 2AX 6AB 
    *  30   -0.000431  (   12,   12)  3AX 6AX 
    *  31    0.000405  (   12,    1)  1AB 3AX 6AA 
    *  32    0.000405  (    1,   12)  1AA 3AX 6AB 
    *  33   -0.000311  (   10,   11)  1AA 2AB 6AX 
    *  34   -0.000311  (   11,   10)  1AB 2AA 6AX 
    *  35    0.000305  (   10,   12)  1AA 3AB 6AX 
    *  36    0.000305  (   12,   10)  1AB 3AA 6AX 
    *  37   -0.000287  (    2,    0)  1AB 2AX 3AA 
    *  38   -0.000287  (    0,    2)  1AA 2AX 3AB 
    *  39   -0.000232  (   13,   13)  4AX 6AX 
    *  40   -0.000232  (   14,   14)  5AX 6AX 
    *  41   -0.000231  (    2,    1)  1AB 2AA 3AX 
    *  42   -0.000231  (    1,    2)  1AA 2AB 3AX 
    *  43   -0.000176  (    5,    5)  3AX 4AX 
    *  44   -0.000176  (    8,    8)  3AX 5AX 
    *  45    0.000131  (    5,   13)  3AA 4AX 6AB 
    *  46    0.000131  (   13,    5)  3AB 4AX 6AA 
    *  47    0.000131  (    8,   14)  3AA 5AX 6AB 
    *  48    0.000131  (   14,    8)  3AB 5AX 6AA 
    *  49   -0.000124  (    6,    8)  1AA 3AB 5AX 
    *  50   -0.000124  (    8,    6)  1AB 3AA 5AX 
    *  51   -0.000124  (    5,    3)  1AB 3AA 4AX 
    *  52   -0.000124  (    3,    5)  1AA 3AB 4AX 
    *  53   -0.000099  (    5,    4)  2AB 3AA 4AX 
    *  54   -0.000099  (    4,    5)  2AA 3AB 4AX 
    *  55   -0.000099  (    8,    7)  2AB 3AA 5AX 
    *  56   -0.000099  (    7,    8)  2AA 3AB 5AX 
    *  57   -0.000089  (    9,    9)  4AX 5AX 
    *  58    0.000069  (   11,   12)  2AA 3AB 6AX 
    *  59    0.000069  (   12,   11)  2AB 3AA 6AX 
    *  60    0.000067  (    2,   11)  2AX 3AA 6AB 
    *  61    0.000067  (   11,    2)  2AX 3AB 6AA 
    *  62    0.000058  (   10,    2)  1AA 2AB 3AB 6AA 
    *  63    0.000058  (    2,   10)  1AB 2AA 3AA 6AB 
    *  64   -0.000033  (   14,    7)  2AB 5AX 6AA 
    *  65   -0.000033  (    7,   14)  2AA 5AX 6AB 
    *  66   -0.000033  (   13,    4)  2AB 4AX 6AA 
    *  67   -0.000033  (    4,   13)  2AA 4AX 6AB 
    *  68    0.000029  (    2,   12)  2AA 3AX 6AB 
    *  69    0.000029  (   12,    2)  2AB 3AX 6AA 


   ==> DETCI root 1 information <==

    DETCI Root 1 energy =    -7.762676180336038

   The 225 most important determinants:

    *   1    0.681298  (    1,    0)  1AX 2AB 3AA 
    *   2   -0.681298  (    0,    1)  1AX 2AA 3AB 
    *   3    0.162738  (    1,   10)  1AX 3AA 6AB 
    *   4   -0.162738  (   10,    1)  1AX 3AB 6AA 
    *   5   -0.096005  (    0,   10)  1AX 2AA 6AB 
    *   6    0.096005  (   10,    0)  1AX 2AB 6AA 
    *   7    0.005645  (    1,   11)  1AA 2AB 3AA 6AB 
    *   8   -0.005645  (   11,    1)  1AB 2AA 3AB 6AA 
    *   9    0.004682  (   12,    0)  1AB 2AB 3AA 6AA 
    *  10   -0.004682  (    0,   12)  1AA 2AA 3AB 6AB 
    *  11   -0.004293  (    1,    2)  1AA 2AB 3AX 
    *  12    0.004293  (    2,    1)  1AB 2AA 3AX 
    *  13    0.003665  (    2,    0)  1AB 2AX 3AA 
    *  14   -0.003665  (    0,    2)  1AA 2AX 3AB 
    *  15   -0.003491  (    3,    4)  1AA 2AB 4AX 
    *  16   -0.003491  (    6,    7)  1AA 2AB 5AX 
    *  17    0.003491  (    4,    3)  1AB 2AA 4AX 
    *  18    0.003491  (    7,    6)  1AB 2AA 5AX 
    *  19    0.001709  (    8,    6)  1AB 3AA 5AX 
    *  20    0.001709  (    5,    3)  1AB 3AA 4AX 
    *  21   -0.001709  (    6,    8)  1AA 3AB 5AX 
    *  22   -0.001709  (    3,    5)  1AA 3AB 4AX 
    *  23    0.001623  (   12,   10)  1AB 3AA 6AX 
    *  24   -0.001623  (   10,   12)  1AA 3AB 6AX 
    *  25   -0.001399  (    2,   11)  2AX 3AA 6AB 
    *  26    0.001399  (   11,    2)  2AX 3AB 6AA 
    *  27   -0.001344  (    5,    4)  2AB 3AA 4AX 
    *  28   -0.001344  (    8,    7)  2AB 3AA 5AX 
    *  29    0.001344  (    4,    5)  2AA 3AB 4AX 
    *  30    0.001344  (    7,    8)  2AA 3AB 5AX 
    *  31    0.001326  (    1,   12)  1AA 3AX 6AB 
    *  32   -0.001326  (   12,    1)  1AB 3AX 6AA 
    *  33   -0.001282  (    2,   10)  1AB 2AA 3AA 6AB 
    *  34    0.001282  (   10,    2)  1AA 2AB 3AB 6AA 
    *  35   -0.001164  (   12,   11)  2AB 3AA 6AX 
    *  36    0.001164  (   11,   12)  2AA 3AB 6AX 
    *  37   -0.001026  (   11,    0)  1AB 2AX 6AA 
    *  38    0.001026  (    0,   11)  1AA 2AX 6AB 
    *  39    0.001023  (    3,   13)  1AA 4AX 6AB 
    *  40   -0.001023  (   13,    3)  1AB 4AX 6AA 
    *  41    0.001023  (    6,   14)  1AA 5AX 6AB 
    *  42   -0.001023  (   14,    6)  1AB 5AX 6AA 
    *  43   -0.000588  (   10,   11)  1AA 2AB 6AX 
    *  44    0.000588  (   11,   10)  1AB 2AA 6AX 
    *  45    0.000298  (    8,   14)  3AA 5AX 6AB 
    *  46   -0.000298  (   14,    8)  3AB 5AX 6AA 
    *  47   -0.000298  (   13,    5)  3AB 4AX 6AA 
    *  48    0.000298  (    5,   13)  3AA 4AX 6AB 
    *  49   -0.000210  (    4,   13)  2AA 4AX 6AB 
    *  50    0.000210  (   13,    4)  2AB 4AX 6AA 
    *  51    0.000210  (   14,    7)  2AB 5AX 6AA 
    *  52   -0.000210  (    7,   14)  2AA 5AX 6AB 
    *  53   -0.000210  (   12,    2)  2AB 3AX 6AA 
    *  54    0.000210  (    2,   12)  2AA 3AX 6AB 


   ==> DETCI root 2 information <==

    DETCI Root 2 energy =    -7.746104080581331

   The 225 most important determinants:

    *   1    0.671836  (    0,    1)  1AX 2AA 3AB 
    *   2    0.671836  (    1,    0)  1AX 2AB 3AA 
    *   3    0.183579  (    1,    1)  1AX 3AX 
    *   4    0.163218  (   10,    1)  1AX 3AB 6AA 
    *   5    0.163218  (    1,   10)  1AX 3AA 6AB 
    *   6    0.070157  (    0,    0)  1AX 2AX 
    *   7   -0.049523  (   10,   10)  1AX 6AX 
    *   8   -0.029951  (   10,    0)  1AX 2AB 6AA 
    *   9   -0.029951  (    0,   10)  1AX 2AA 6AB 
    *  10    0.020762  (    3,    3)  1AX 4AX 
    *  11    0.020762  (    6,    6)  1AX 5AX 
    *  12    0.005381  (   11,    1)  1AB 2AA 3AB 6AA 
    *  13    0.005381  (    1,   11)  1AA 2AB 3AA 6AB 
    *  14    0.004596  (    0,   12)  1AA 2AA 3AB 6AB 
    *  15    0.004596  (   12,    0)  1AB 2AB 3AA 6AA 
    *  16   -0.004566  (    2,    1)  1AB 2AA 3AX 
    *  17   -0.004566  (    1,    2)  1AA 2AB 3AX 
    *  18   -0.003806  (    2,    2)  2AX 3AX 
    *  19    0.003770  (    0,    2)  1AA 2AX 3AB 
    *  20    0.003770  (    2,    0)  1AB 2AX 3AA 
    *  21    0.002615  (   12,    1)  1AB 3AX 6AA 
    *  22    0.002615  (    1,   12)  1AA 3AX 6AB 
    *  23   -0.002533  (    4,    3)  1AB 2AA 4AX 
    *  24   -0.002533  (    7,    6)  1AB 2AA 5AX 
    *  25   -0.002533  (    6,    7)  1AA 2AB 5AX 
    *  26   -0.002533  (    3,    4)  1AA 2AB 4AX 
    *  27   -0.002040  (    0,   11)  1AA 2AX 6AB 
    *  28   -0.002040  (   11,    0)  1AB 2AX 6AA 
    *  29   -0.001483  (   11,    2)  2AX 3AB 6AA 
    *  30   -0.001483  (    2,   11)  2AX 3AA 6AB 
    *  31   -0.001463  (   10,   11)  1AA 2AB 6AX 
    *  32   -0.001463  (   11,   10)  1AB 2AA 6AX 
    *  33   -0.001299  (   12,   11)  2AB 3AA 6AX 
    *  34   -0.001299  (   11,   12)  2AA 3AB 6AX 
    *  35   -0.001227  (    4,    5)  2AA 3AB 4AX 
    *  36   -0.001227  (    7,    8)  2AA 3AB 5AX 
    *  37   -0.001227  (    8,    7)  2AB 3AA 5AX 
    *  38   -0.001227  (    5,    4)  2AB 3AA 4AX 
    *  39    0.000923  (    3,    5)  1AA 3AB 4AX 
    *  40    0.000923  (    6,    8)  1AA 3AB 5AX 
    *  41    0.000923  (    5,    3)  1AB 3AA 4AX 
    *  42    0.000923  (    8,    6)  1AB 3AA 5AX 
    *  43    0.000885  (   13,    3)  1AB 4AX 6AA 
    *  44    0.000885  (    3,   13)  1AA 4AX 6AB 
    *  45    0.000885  (   14,    6)  1AB 5AX 6AA 
    *  46    0.000885  (    6,   14)  1AA 5AX 6AB 
    *  47    0.000785  (    2,   10)  1AB 2AA 3AA 6AB 
    *  48    0.000785  (   10,    2)  1AA 2AB 3AB 6AA 
    *  49    0.000780  (   10,   12)  1AA 3AB 6AX 
    *  50    0.000780  (   12,   10)  1AB 3AA 6AX 
    *  51   -0.000396  (   12,    2)  2AB 3AX 6AA 
    *  52   -0.000396  (    2,   12)  2AA 3AX 6AB 
    *  53   -0.000328  (    8,    8)  3AX 5AX 
    *  54   -0.000328  (    5,    5)  3AX 4AX 
    *  55    0.000306  (    8,   14)  3AA 5AX 6AB 
    *  56    0.000306  (    5,   13)  3AA 4AX 6AB 
    *  57    0.000306  (   14,    8)  3AB 5AX 6AA 
    *  58    0.000306  (   13,    5)  3AB 4AX 6AA 
    *  59    0.000254  (   11,   11)  2AX 6AX 
    *  60    0.000105  (   12,   12)  3AX 6AX 
    *  61   -0.000101  (    7,   14)  2AA 5AX 6AB 
    *  62   -0.000101  (   13,    4)  2AB 4AX 6AA 
    *  63   -0.000101  (    4,   13)  2AA 4AX 6AB 
    *  64   -0.000101  (   14,    7)  2AB 5AX 6AA 
    *  65   -0.000060  (    9,    9)  4AX 5AX 
    *  66    0.000054  (   13,   13)  4AX 6AX 
    *  67    0.000054  (   14,   14)  5AX 6AX 
    *  68   -0.000052  (    4,    4)  2AX 4AX 
    *  69   -0.000052  (    7,    7)  2AX 5AX 


   ==> DETCI root 3 information <==

    DETCI Root 3 energy =    -7.714200120414503

   The 225 most important determinants:

    *   1   -0.684633  (    0,    6)  1AX 2AA 5AB 
    *   2    0.684633  (    6,    0)  1AX 2AB 5AA 
    *   3   -0.154450  (   10,    6)  1AX 5AB 6AA 
    *   4    0.154450  (    6,   10)  1AX 5AA 6AB 
    *   5   -0.080114  (    1,    6)  1AX 3AA 5AB 
    *   6    0.080114  (    6,    1)  1AX 3AB 5AA 
    *   7   -0.029445  (    0,    3)  1AX 2AA 4AB 
    *   8    0.029445  (    3,    0)  1AX 2AB 4AA 
    *   9   -0.006643  (   10,    3)  1AX 4AB 6AA 
    *  10    0.006643  (    3,   10)  1AX 4AA 6AB 
    *  11   -0.005562  (    0,   14)  1AA 2AA 5AB 6AB 
    *  12    0.005562  (   14,    0)  1AB 2AB 5AA 6AA 
    *  13   -0.003446  (    1,    3)  1AX 3AA 4AB 
    *  14    0.003446  (    3,    1)  1AX 3AB 4AA 
    *  15    0.003193  (    7,    1)  1AB 2AA 3AB 5AA 
    *  16   -0.003193  (    1,    7)  1AA 2AB 3AA 5AB 
    *  17   -0.002876  (    2,    8)  2AA 3AX 5AB 
    *  18    0.002876  (    8,    2)  2AB 3AX 5AA 
    *  19    0.002871  (    2,    6)  1AB 2AA 3AA 5AB 
    *  20   -0.002871  (    6,    2)  1AA 2AB 3AB 5AA 
    *  21   -0.002324  (   11,    6)  1AB 2AA 5AB 6AA 
    *  22    0.002324  (    6,   11)  1AA 2AB 5AA 6AB 
    *  23    0.001795  (    2,    7)  2AX 3AA 5AB 
    *  24   -0.001795  (    7,    2)  2AX 3AB 5AA 
    *  25    0.001525  (   11,    7)  2AX 5AB 6AA 
    *  26   -0.001525  (    7,   11)  2AX 5AA 6AB 
    *  27    0.001375  (    3,    9)  1AA 4AX 5AB 
    *  28   -0.001375  (    9,    3)  1AB 4AX 5AA 
    *  29    0.001299  (    7,   10)  1AB 2AA 5AA 6AB 
    *  30   -0.001299  (   10,    7)  1AA 2AB 5AB 6AA 
    *  31   -0.001294  (    0,    7)  1AA 2AX 5AB 
    *  32    0.001294  (    7,    0)  1AB 2AX 5AA 
    *  33    0.001270  (    0,    8)  1AA 2AA 3AB 5AB 
    *  34   -0.001270  (    8,    0)  1AB 2AB 3AA 5AA 
    *  35   -0.001228  (    4,    9)  2AA 4AX 5AB 
    *  36    0.001228  (    9,    4)  2AB 4AX 5AA 
    *  37    0.001143  (   11,   14)  2AA 5AB 6AX 
    *  38   -0.001143  (   14,   11)  2AB 5AA 6AX 
    *  39   -0.000915  (   12,    6)  1AB 3AA 5AB 6AA 
    *  40    0.000915  (    6,   12)  1AA 3AB 5AA 6AB 
    *  41   -0.000807  (   10,   14)  1AA 5AB 6AX 
    *  42    0.000807  (   14,   10)  1AB 5AA 6AX 
    *  43   -0.000605  (   11,    8)  2AA 3AB 5AB 6AA 
    *  44    0.000605  (    8,   11)  2AB 3AA 5AA 6AB 
    *  45    0.000562  (   12,    8)  3AX 5AB 6AA 
    *  46   -0.000562  (    8,   12)  3AX 5AA 6AB 
    *  47    0.000469  (    8,    1)  1AB 3AX 5AA 
    *  48   -0.000469  (    1,    8)  1AA 3AX 5AB 
    *  49    0.000461  (    2,   14)  2AA 3AA 5AB 6AB 
    *  50   -0.000461  (   14,    2)  2AB 3AB 5AA 6AA 
    *  51   -0.000273  (   14,    1)  1AB 3AB 5AA 6AA 
    *  52    0.000273  (    1,   14)  1AA 3AA 5AB 6AB 
    *  53    0.000252  (   13,    9)  4AX 5AB 6AA 
    *  54   -0.000252  (    9,   13)  4AX 5AA 6AB 
    *  55   -0.000239  (    0,   13)  1AA 2AA 4AB 6AB 
    *  56    0.000239  (   13,    0)  1AB 2AB 4AA 6AA 
    *  57   -0.000214  (   12,    7)  2AB 3AA 5AB 6AA 
    *  58    0.000214  (    7,   12)  2AA 3AB 5AA 6AB 
    *  59   -0.000137  (    1,    4)  1AA 2AB 3AA 4AB 
    *  60    0.000137  (    4,    1)  1AB 2AA 3AB 4AA 
    *  61   -0.000124  (    2,    5)  2AA 3AX 4AB 
    *  62    0.000124  (    5,    2)  2AB 3AX 4AA 
    *  63   -0.000123  (    3,    2)  1AA 2AB 3AB 4AA 
    *  64    0.000123  (    2,    3)  1AB 2AA 3AA 4AB 
    *  65   -0.000100  (   11,    3)  1AB 2AA 4AB 6AA 
    *  66    0.000100  (    3,   11)  1AA 2AB 4AA 6AB 
    *  67   -0.000093  (    5,    9)  3AA 4AX 5AB 
    *  68    0.000093  (    9,    5)  3AB 4AX 5AA 
    *  69    0.000078  (    8,   10)  1AB 3AA 5AA 6AB 
    *  70   -0.000078  (   10,    8)  1AA 3AB 5AB 6AA 
    *  71   -0.000077  (    4,    2)  2AX 3AB 4AA 
    *  72    0.000077  (    2,    4)  2AX 3AA 4AB 
    *  73    0.000066  (   11,    4)  2AX 4AB 6AA 
    *  74   -0.000066  (    4,   11)  2AX 4AA 6AB 
    *  75   -0.000059  (    6,    9)  1AA 4AB 5AX 
    *  76    0.000059  (    9,    6)  1AB 4AA 5AX 
    *  77   -0.000056  (   10,    4)  1AA 2AB 4AB 6AA 
    *  78    0.000056  (    4,   10)  1AB 2AA 4AA 6AB 
    *  79   -0.000056  (    0,    4)  1AA 2AX 4AB 
    *  80    0.000056  (    4,    0)  1AB 2AX 4AA 
    *  81    0.000055  (    0,    5)  1AA 2AA 3AB 4AB 
    *  82   -0.000055  (    5,    0)  1AB 2AB 3AA 4AA 
    *  83    0.000053  (    7,    9)  2AA 4AB 5AX 
    *  84   -0.000053  (    9,    7)  2AB 4AA 5AX 
    *  85    0.000049  (   11,   13)  2AA 4AB 6AX 
    *  86   -0.000049  (   13,   11)  2AB 4AA 6AX 
    *  87    0.000039  (    3,   12)  1AA 3AB 4AA 6AB 
    *  88   -0.000039  (   12,    3)  1AB 3AA 4AB 6AA 
    *  89   -0.000035  (   10,   13)  1AA 4AB 6AX 
    *  90    0.000035  (   13,   10)  1AB 4AA 6AX 
    *  91   -0.000026  (   11,    5)  2AA 3AB 4AB 6AA 
    *  92    0.000026  (    5,   11)  2AB 3AA 4AA 6AB 
    *  93    0.000025  (   12,   14)  3AA 5AB 6AX 
    *  94   -0.000025  (   14,   12)  3AB 5AA 6AX 
    *  95   -0.000024  (    5,   12)  3AX 4AA 6AB 
    *  96    0.000024  (   12,    5)  3AX 4AB 6AA 
    *  97    0.000020  (    5,    1)  1AB 3AX 4AA 
    *  98   -0.000020  (    1,    5)  1AA 3AX 4AB 
    *  99   -0.000020  (   13,    2)  2AB 3AB 4AA 6AA 
    * 100    0.000020  (    2,   13)  2AA 3AA 4AB 6AB 
    * 101   -0.000012  (   13,    1)  1AB 3AB 4AA 6AA 
    * 102    0.000012  (    1,   13)  1AA 3AA 4AB 6AB 
    * 103   -0.000011  (   14,    9)  4AB 5AX 6AA 
    * 104    0.000011  (    9,   14)  4AA 5AX 6AB 
    * 105    0.000009  (    4,   12)  2AA 3AB 4AA 6AB 
    * 106   -0.000009  (   12,    4)  2AB 3AA 4AB 6AA 
    * 107    0.000004  (    8,    9)  3AA 4AB 5AX 
    * 108   -0.000004  (    9,    8)  3AB 4AA 5AX 
    * 109    0.000003  (    5,   10)  1AB 3AA 4AA 6AB 
    * 110   -0.000003  (   10,    5)  1AA 3AB 4AB 6AA 
    * 111   -0.000001  (   13,   12)  3AB 4AA 6AX 
    * 112    0.000001  (   12,   13)  3AA 4AB 6AX 


   ==> DETCI root 4 information <==

    DETCI Root 4 energy =    -7.714200120414484

   The 225 most important determinants:

    *   1   -0.684633  (    0,    3)  1AX 2AA 4AB 
    *   2    0.684633  (    3,    0)  1AX 2AB 4AA 
    *   3   -0.154450  (   10,    3)  1AX 4AB 6AA 
    *   4    0.154450  (    3,   10)  1AX 4AA 6AB 
    *   5   -0.080114  (    1,    3)  1AX 3AA 4AB 
    *   6    0.080114  (    3,    1)  1AX 3AB 4AA 
    *   7    0.029445  (    0,    6)  1AX 2AA 5AB 
    *   8   -0.029445  (    6,    0)  1AX 2AB 5AA 
    *   9   -0.006643  (    6,   10)  1AX 5AA 6AB 
    *  10    0.006643  (   10,    6)  1AX 5AB 6AA 
    *  11   -0.005562  (    0,   13)  1AA 2AA 4AB 6AB 
    *  12    0.005562  (   13,    0)  1AB 2AB 4AA 6AA 
    *  13    0.003446  (    1,    6)  1AX 3AA 5AB 
    *  14   -0.003446  (    6,    1)  1AX 3AB 5AA 
    *  15    0.003193  (    4,    1)  1AB 2AA 3AB 4AA 
    *  16   -0.003193  (    1,    4)  1AA 2AB 3AA 4AB 
    *  17   -0.002876  (    2,    5)  2AA 3AX 4AB 
    *  18    0.002876  (    5,    2)  2AB 3AX 4AA 
    *  19    0.002871  (    2,    3)  1AB 2AA 3AA 4AB 
    *  20   -0.002871  (    3,    2)  1AA 2AB 3AB 4AA 
    *  21   -0.002324  (   11,    3)  1AB 2AA 4AB 6AA 
    *  22    0.002324  (    3,   11)  1AA 2AB 4AA 6AB 
    *  23    0.001795  (    2,    4)  2AX 3AA 4AB 
    *  24   -0.001795  (    4,    2)  2AX 3AB 4AA 
    *  25    0.001525  (   11,    4)  2AX 4AB 6AA 
    *  26   -0.001525  (    4,   11)  2AX 4AA 6AB 
    *  27   -0.001375  (    6,    9)  1AA 4AB 5AX 
    *  28    0.001375  (    9,    6)  1AB 4AA 5AX 
    *  29    0.001299  (    4,   10)  1AB 2AA 4AA 6AB 
    *  30   -0.001299  (   10,    4)  1AA 2AB 4AB 6AA 
    *  31   -0.001294  (    0,    4)  1AA 2AX 4AB 
    *  32    0.001294  (    4,    0)  1AB 2AX 4AA 
    *  33    0.001270  (    0,    5)  1AA 2AA 3AB 4AB 
    *  34   -0.001270  (    5,    0)  1AB 2AB 3AA 4AA 
    *  35    0.001228  (    7,    9)  2AA 4AB 5AX 
    *  36   -0.001228  (    9,    7)  2AB 4AA 5AX 
    *  37    0.001143  (   11,   13)  2AA 4AB 6AX 
    *  38   -0.001143  (   13,   11)  2AB 4AA 6AX 
    *  39   -0.000915  (   12,    3)  1AB 3AA 4AB 6AA 
    *  40    0.000915  (    3,   12)  1AA 3AB 4AA 6AB 
    *  41   -0.000807  (   10,   13)  1AA 4AB 6AX 
    *  42    0.000807  (   13,   10)  1AB 4AA 6AX 
    *  43   -0.000605  (   11,    5)  2AA 3AB 4AB 6AA 
    *  44    0.000605  (    5,   11)  2AB 3AA 4AA 6AB 
    *  45    0.000562  (   12,    5)  3AX 4AB 6AA 
    *  46   -0.000562  (    5,   12)  3AX 4AA 6AB 
    *  47    0.000469  (    5,    1)  1AB 3AX 4AA 
    *  48   -0.000469  (    1,    5)  1AA 3AX 4AB 
    *  49    0.000461  (    2,   13)  2AA 3AA 4AB 6AB 
    *  50   -0.000461  (   13,    2)  2AB 3AB 4AA 6AA 
    *  51   -0.000273  (   13,    1)  1AB 3AB 4AA 6AA 
    *  52    0.000273  (    1,   13)  1AA 3AA 4AB 6AB 
    *  53   -0.000252  (   14,    9)  4AB 5AX 6AA 
    *  54    0.000252  (    9,   14)  4AA 5AX 6AB 
    *  55    0.000239  (    0,   14)  1AA 2AA 5AB 6AB 
    *  56   -0.000239  (   14,    0)  1AB 2AB 5AA 6AA 
    *  57   -0.000214  (   12,    4)  2AB 3AA 4AB 6AA 
    *  58    0.000214  (    4,   12)  2AA 3AB 4AA 6AB 
    *  59   -0.000137  (    7,    1)  1AB 2AA 3AB 5AA 
    *  60    0.000137  (    1,    7)  1AA 2AB 3AA 5AB 
    *  61    0.000124  (    2,    8)  2AA 3AX 5AB 
    *  62   -0.000124  (    8,    2)  2AB 3AX 5AA 
    *  63    0.000123  (    6,    2)  1AA 2AB 3AB 5AA 
    *  64   -0.000123  (    2,    6)  1AB 2AA 3AA 5AB 
    *  65   -0.000100  (    6,   11)  1AA 2AB 5AA 6AB 
    *  66    0.000100  (   11,    6)  1AB 2AA 5AB 6AA 
    *  67    0.000093  (    8,    9)  3AA 4AB 5AX 
    *  68   -0.000093  (    9,    8)  3AB 4AA 5AX 
    *  69    0.000078  (    5,   10)  1AB 3AA 4AA 6AB 
    *  70   -0.000078  (   10,    5)  1AA 3AB 4AB 6AA 
    *  71    0.000077  (    7,    2)  2AX 3AB 5AA 
    *  72   -0.000077  (    2,    7)  2AX 3AA 5AB 
    *  73    0.000066  (    7,   11)  2AX 5AA 6AB 
    *  74   -0.000066  (   11,    7)  2AX 5AB 6AA 
    *  75   -0.000059  (    3,    9)  1AA 4AX 5AB 
    *  76    0.000059  (    9,    3)  1AB 4AX 5AA 
    *  77    0.000056  (   10,    7)  1AA 2AB 5AB 6AA 
    *  78   -0.000056  (    7,   10)  1AB 2AA 5AA 6AB 
    *  79    0.000056  (    0,    7)  1AA 2AX 5AB 
    *  80   -0.000056  (    7,    0)  1AB 2AX 5AA 
    *  81   -0.000055  (    0,    8)  1AA 2AA 3AB 5AB 
    *  82    0.000055  (    8,    0)  1AB 2AB 3AA 5AA 
    *  83    0.000053  (    4,    9)  2AA 4AX 5AB 
    *  84   -0.000053  (    9,    4)  2AB 4AX 5AA 
    *  85    0.000049  (   14,   11)  2AB 5AA 6AX 
    *  86   -0.000049  (   11,   14)  2AA 5AB 6AX 
    *  87   -0.000039  (    6,   12)  1AA 3AB 5AA 6AB 
    *  88    0.000039  (   12,    6)  1AB 3AA 5AB 6AA 
    *  89   -0.000035  (   14,   10)  1AB 5AA 6AX 
    *  90    0.000035  (   10,   14)  1AA 5AB 6AX 
    *  91   -0.000026  (    8,   11)  2AB 3AA 5AA 6AB 
    *  92    0.000026  (   11,    8)  2AA 3AB 5AB 6AA 
    *  93    0.000025  (   12,   13)  3AA 4AB 6AX 
    *  94   -0.000025  (   13,   12)  3AB 4AA 6AX 
    *  95    0.000024  (    8,   12)  3AX 5AA 6AB 
    *  96   -0.000024  (   12,    8)  3AX 5AB 6AA 
    *  97   -0.000020  (    8,    1)  1AB 3AX 5AA 
    *  98    0.000020  (    1,    8)  1AA 3AX 5AB 
    *  99   -0.000020  (    2,   14)  2AA 3AA 5AB 6AB 
    * 100    0.000020  (   14,    2)  2AB 3AB 5AA 6AA 
    * 101   -0.000012  (    1,   14)  1AA 3AA 5AB 6AB 
    * 102    0.000012  (   14,    1)  1AB 3AB 5AA 6AA 
    * 103    0.000011  (    9,   13)  4AX 5AA 6AB 
    * 104   -0.000011  (   13,    9)  4AX 5AB 6AA 
    * 105   -0.000009  (    7,   12)  2AA 3AB 5AA 6AB 
    * 106    0.000009  (   12,    7)  2AB 3AA 5AB 6AA 
    * 107    0.000004  (    5,    9)  3AA 4AX 5AB 
    * 108   -0.000004  (    9,    5)  3AB 4AX 5AA 
    * 109   -0.000003  (    8,   10)  1AB 3AA 5AA 6AB 
    * 110    0.000003  (   10,    8)  1AA 3AB 5AB 6AA 
    * 111   -0.000001  (   12,   14)  3AA 5AB 6AX 
    * 112    0.000001  (   14,   12)  3AB 5AA 6AX 


   ==> DETCI root 5 information <==

    DETCI Root 5 energy =    -7.693301580543151

   The 225 most important determinants:

    *   1   -0.671068  (    6,    0)  1AX 2AB 5AA 
    *   2   -0.671068  (    0,    6)  1AX 2AA 5AB 
    *   3   -0.189587  (    6,   10)  1AX 5AA 6AB 
    *   4   -0.189587  (   10,    6)  1AX 5AB 6AA 
    *   5   -0.115506  (    6,    1)  1AX 3AB 5AA 
    *   6   -0.115506  (    1,    6)  1AX 3AA 5AB 
    *   7    0.015613  (    0,    3)  1AX 2AA 4AB 
    *   8    0.015613  (    3,    0)  1AX 2AB 4AA 
    *   9   -0.006426  (    7,    0)  1AB 2AX 5AA 
    *  10   -0.006426  (    0,    7)  1AA 2AX 5AB 
    *  11    0.004411  (    3,   10)  1AX 4AA 6AB 
    *  12    0.004411  (   10,    3)  1AX 4AB 6AA 
    *  13   -0.004211  (   14,    0)  1AB 2AB 5AA 6AA 
    *  14   -0.004211  (    0,   14)  1AA 2AA 5AB 6AB 
    *  15    0.003019  (    1,    7)  1AA 2AB 3AA 5AB 
    *  16    0.003019  (    7,    1)  1AB 2AA 3AB 5AA 
    *  17   -0.002912  (    8,    2)  2AB 3AX 5AA 
    *  18   -0.002912  (    2,    8)  2AA 3AX 5AB 
    *  19    0.002687  (    3,    1)  1AX 3AB 4AA 
    *  20    0.002687  (    1,    3)  1AX 3AA 4AB 
    *  21    0.002461  (    6,    2)  1AA 2AB 3AB 5AA 
    *  22    0.002461  (    2,    6)  1AB 2AA 3AA 5AB 
    *  23   -0.002364  (    6,   11)  1AA 2AB 5AA 6AB 
    *  24   -0.002364  (   11,    6)  1AB 2AA 5AB 6AA 
    *  25    0.001888  (    7,    2)  2AX 3AB 5AA 
    *  26    0.001888  (    2,    7)  2AX 3AA 5AB 
    *  27    0.001847  (   10,    7)  1AA 2AB 5AB 6AA 
    *  28    0.001847  (    7,   10)  1AB 2AA 5AA 6AB 
    *  29   -0.001838  (   14,   10)  1AB 5AA 6AX 
    *  30   -0.001838  (   10,   14)  1AA 5AB 6AX 
    *  31   -0.001762  (   14,    1)  1AB 3AB 5AA 6AA 
    *  32   -0.001762  (    1,   14)  1AA 3AA 5AB 6AB 
    *  33    0.001561  (    7,   11)  2AX 5AA 6AB 
    *  34    0.001561  (   11,    7)  2AX 5AB 6AA 
    *  35   -0.001365  (    6,   12)  1AA 3AB 5AA 6AB 
    *  36   -0.001365  (   12,    6)  1AB 3AA 5AB 6AA 
    *  37   -0.001206  (    9,    4)  2AB 4AX 5AA 
    *  38   -0.001206  (    4,    9)  2AA 4AX 5AB 
    *  39    0.001199  (   14,   11)  2AB 5AA 6AX 
    *  40    0.001199  (   11,   14)  2AA 5AB 6AX 
    *  41    0.001183  (    9,    3)  1AB 4AX 5AA 
    *  42    0.001183  (    3,    9)  1AA 4AX 5AB 
    *  43    0.000691  (    8,   12)  3AX 5AA 6AB 
    *  44    0.000691  (   12,    8)  3AX 5AB 6AA 
    *  45   -0.000690  (    8,   11)  2AB 3AA 5AA 6AB 
    *  46   -0.000690  (   11,    8)  2AA 3AB 5AB 6AA 
    *  47    0.000558  (    8,    0)  1AB 2AB 3AA 5AA 
    *  48    0.000558  (    0,    8)  1AA 2AA 3AB 5AB 
    *  49    0.000526  (   14,    2)  2AB 3AB 5AA 6AA 
    *  50    0.000526  (    2,   14)  2AA 3AA 5AB 6AB 
    *  51    0.000397  (   10,    8)  1AA 3AB 5AB 6AA 
    *  52    0.000397  (    8,   10)  1AB 3AA 5AA 6AB 
    *  53    0.000310  (    9,   13)  4AX 5AA 6AB 
    *  54    0.000310  (   13,    9)  4AX 5AB 6AA 
    *  55    0.000300  (    8,    1)  1AB 3AX 5AA 
    *  56    0.000300  (    1,    8)  1AA 3AX 5AB 
    *  57   -0.000164  (    7,   12)  2AA 3AB 5AA 6AB 
    *  58   -0.000164  (   12,    7)  2AB 3AA 5AB 6AA 
    *  59   -0.000154  (    5,    9)  3AA 4AX 5AB 
    *  60   -0.000154  (    9,    5)  3AB 4AX 5AA 
    *  61    0.000150  (    0,    4)  1AA 2AX 4AB 
    *  62    0.000150  (    4,    0)  1AB 2AX 4AA 
    *  63    0.000098  (   13,    0)  1AB 2AB 4AA 6AA 
    *  64    0.000098  (    0,   13)  1AA 2AA 4AB 6AB 
    *  65   -0.000070  (    4,    1)  1AB 2AA 3AB 4AA 
    *  66   -0.000070  (    1,    4)  1AA 2AB 3AA 4AB 
    *  67    0.000068  (    2,    5)  2AA 3AX 4AB 
    *  68    0.000068  (    5,    2)  2AB 3AX 4AA 
    *  69   -0.000057  (    2,    3)  1AB 2AA 3AA 4AB 
    *  70   -0.000057  (    3,    2)  1AA 2AB 3AB 4AA 
    *  71    0.000055  (   11,    3)  1AB 2AA 4AB 6AA 
    *  72    0.000055  (    3,   11)  1AA 2AB 4AA 6AB 
    *  73   -0.000044  (    4,    2)  2AX 3AB 4AA 
    *  74   -0.000044  (    2,    4)  2AX 3AA 4AB 
    *  75   -0.000043  (   10,    4)  1AA 2AB 4AB 6AA 
    *  76   -0.000043  (    4,   10)  1AB 2AA 4AA 6AB 
    *  77    0.000043  (   10,   13)  1AA 4AB 6AX 
    *  78    0.000043  (   13,   10)  1AB 4AA 6AX 
    *  79    0.000041  (    1,   13)  1AA 3AA 4AB 6AB 
    *  80    0.000041  (   13,    1)  1AB 3AB 4AA 6AA 
    *  81    0.000041  (   12,   14)  3AA 5AB 6AX 
    *  82    0.000041  (   14,   12)  3AB 5AA 6AX 
    *  83   -0.000036  (   11,    4)  2AX 4AB 6AA 
    *  84   -0.000036  (    4,   11)  2AX 4AA 6AB 
    *  85    0.000032  (    3,   12)  1AA 3AB 4AA 6AB 
    *  86    0.000032  (   12,    3)  1AB 3AA 4AB 6AA 
    *  87   -0.000028  (    7,    9)  2AA 4AB 5AX 
    *  88   -0.000028  (    9,    7)  2AB 4AA 5AX 
    *  89   -0.000028  (   13,   11)  2AB 4AA 6AX 
    *  90   -0.000028  (   11,   13)  2AA 4AB 6AX 
    *  91    0.000028  (    6,    9)  1AA 4AB 5AX 
    *  92    0.000028  (    9,    6)  1AB 4AA 5AX 
    *  93   -0.000016  (   12,    5)  3AX 4AB 6AA 
    *  94   -0.000016  (    5,   12)  3AX 4AA 6AB 
    *  95    0.000016  (   11,    5)  2AA 3AB 4AB 6AA 
    *  96    0.000016  (    5,   11)  2AB 3AA 4AA 6AB 
    *  97   -0.000013  (    0,    5)  1AA 2AA 3AB 4AB 
    *  98   -0.000013  (    5,    0)  1AB 2AB 3AA 4AA 
    *  99   -0.000012  (   13,    2)  2AB 3AB 4AA 6AA 
    * 100   -0.000012  (    2,   13)  2AA 3AA 4AB 6AB 
    * 101   -0.000009  (   10,    5)  1AA 3AB 4AB 6AA 
    * 102   -0.000009  (    5,   10)  1AB 3AA 4AA 6AB 
    * 103    0.000007  (   14,    9)  4AB 5AX 6AA 
    * 104    0.000007  (    9,   14)  4AA 5AX 6AB 
    * 105   -0.000007  (    1,    5)  1AA 3AX 4AB 
    * 106   -0.000007  (    5,    1)  1AB 3AX 4AA 
    * 107    0.000004  (   12,    4)  2AB 3AA 4AB 6AA 
    * 108    0.000004  (    4,   12)  2AA 3AB 4AA 6AB 
    * 109   -0.000004  (    8,    9)  3AA 4AB 5AX 
    * 110   -0.000004  (    9,    8)  3AB 4AA 5AX 
    * 111   -0.000001  (   13,   12)  3AB 4AA 6AX 
    * 112   -0.000001  (   12,   13)  3AA 4AB 6AX 


   ==> DETCI root 6 information <==

    DETCI Root 6 energy =    -7.693301580543148

   The 225 most important determinants:

    *   1   -0.671068  (    3,    0)  1AX 2AB 4AA 
    *   2   -0.671068  (    0,    3)  1AX 2AA 4AB 
    *   3   -0.189587  (    3,   10)  1AX 4AA 6AB 
    *   4   -0.189587  (   10,    3)  1AX 4AB 6AA 
    *   5   -0.115506  (    3,    1)  1AX 3AB 4AA 
    *   6   -0.115506  (    1,    3)  1AX 3AA 4AB 
    *   7   -0.015613  (    6,    0)  1AX 2AB 5AA 
    *   8   -0.015613  (    0,    6)  1AX 2AA 5AB 
    *   9   -0.006426  (    4,    0)  1AB 2AX 4AA 
    *  10   -0.006426  (    0,    4)  1AA 2AX 4AB 
    *  11   -0.004411  (    6,   10)  1AX 5AA 6AB 
    *  12   -0.004411  (   10,    6)  1AX 5AB 6AA 
    *  13   -0.004211  (   13,    0)  1AB 2AB 4AA 6AA 
    *  14   -0.004211  (    0,   13)  1AA 2AA 4AB 6AB 
    *  15    0.003019  (    1,    4)  1AA 2AB 3AA 4AB 
    *  16    0.003019  (    4,    1)  1AB 2AA 3AB 4AA 
    *  17   -0.002912  (    5,    2)  2AB 3AX 4AA 
    *  18   -0.002912  (    2,    5)  2AA 3AX 4AB 
    *  19   -0.002687  (    6,    1)  1AX 3AB 5AA 
    *  20   -0.002687  (    1,    6)  1AX 3AA 5AB 
    *  21    0.002461  (    3,    2)  1AA 2AB 3AB 4AA 
    *  22    0.002461  (    2,    3)  1AB 2AA 3AA 4AB 
    *  23   -0.002364  (    3,   11)  1AA 2AB 4AA 6AB 
    *  24   -0.002364  (   11,    3)  1AB 2AA 4AB 6AA 
    *  25    0.001888  (    4,    2)  2AX 3AB 4AA 
    *  26    0.001888  (    2,    4)  2AX 3AA 4AB 
    *  27    0.001847  (   10,    4)  1AA 2AB 4AB 6AA 
    *  28    0.001847  (    4,   10)  1AB 2AA 4AA 6AB 
    *  29   -0.001838  (   13,   10)  1AB 4AA 6AX 
    *  30   -0.001838  (   10,   13)  1AA 4AB 6AX 
    *  31   -0.001762  (    1,   13)  1AA 3AA 4AB 6AB 
    *  32   -0.001762  (   13,    1)  1AB 3AB 4AA 6AA 
    *  33    0.001561  (    4,   11)  2AX 4AA 6AB 
    *  34    0.001561  (   11,    4)  2AX 4AB 6AA 
    *  35   -0.001365  (    3,   12)  1AA 3AB 4AA 6AB 
    *  36   -0.001365  (   12,    3)  1AB 3AA 4AB 6AA 
    *  37    0.001206  (    9,    7)  2AB 4AA 5AX 
    *  38    0.001206  (    7,    9)  2AA 4AB 5AX 
    *  39    0.001199  (   13,   11)  2AB 4AA 6AX 
    *  40    0.001199  (   11,   13)  2AA 4AB 6AX 
    *  41   -0.001183  (    9,    6)  1AB 4AA 5AX 
    *  42   -0.001183  (    6,    9)  1AA 4AB 5AX 
    *  43    0.000691  (    5,   12)  3AX 4AA 6AB 
    *  44    0.000691  (   12,    5)  3AX 4AB 6AA 
    *  45   -0.000690  (    5,   11)  2AB 3AA 4AA 6AB 
    *  46   -0.000690  (   11,    5)  2AA 3AB 4AB 6AA 
    *  47    0.000558  (    5,    0)  1AB 2AB 3AA 4AA 
    *  48    0.000558  (    0,    5)  1AA 2AA 3AB 4AB 
    *  49    0.000526  (   13,    2)  2AB 3AB 4AA 6AA 
    *  50    0.000526  (    2,   13)  2AA 3AA 4AB 6AB 
    *  51    0.000397  (   10,    5)  1AA 3AB 4AB 6AA 
    *  52    0.000397  (    5,   10)  1AB 3AA 4AA 6AB 
    *  53   -0.000310  (    9,   14)  4AA 5AX 6AB 
    *  54   -0.000310  (   14,    9)  4AB 5AX 6AA 
    *  55    0.000300  (    1,    5)  1AA 3AX 4AB 
    *  56    0.000300  (    5,    1)  1AB 3AX 4AA 
    *  57   -0.000164  (    4,   12)  2AA 3AB 4AA 6AB 
    *  58   -0.000164  (   12,    4)  2AB 3AA 4AB 6AA 
    *  59    0.000154  (    9,    8)  3AB 4AA 5AX 
    *  60    0.000154  (    8,    9)  3AA 4AB 5AX 
    *  61   -0.000150  (    7,    0)  1AB 2AX 5AA 
    *  62   -0.000150  (    0,    7)  1AA 2AX 5AB 
    *  63   -0.000098  (   14,    0)  1AB 2AB 5AA 6AA 
    *  64   -0.000098  (    0,   14)  1AA 2AA 5AB 6AB 
    *  65    0.000070  (    1,    7)  1AA 2AB 3AA 5AB 
    *  66    0.000070  (    7,    1)  1AB 2AA 3AB 5AA 
    *  67   -0.000068  (    8,    2)  2AB 3AX 5AA 
    *  68   -0.000068  (    2,    8)  2AA 3AX 5AB 
    *  69    0.000057  (    2,    6)  1AB 2AA 3AA 5AB 
    *  70    0.000057  (    6,    2)  1AA 2AB 3AB 5AA 
    *  71   -0.000055  (    6,   11)  1AA 2AB 5AA 6AB 
    *  72   -0.000055  (   11,    6)  1AB 2AA 5AB 6AA 
    *  73    0.000044  (    2,    7)  2AX 3AA 5AB 
    *  74    0.000044  (    7,    2)  2AX 3AB 5AA 
    *  75    0.000043  (    7,   10)  1AB 2AA 5AA 6AB 
    *  76    0.000043  (   10,    7)  1AA 2AB 5AB 6AA 
    *  77   -0.000043  (   14,   10)  1AB 5AA 6AX 
    *  78   -0.000043  (   10,   14)  1AA 5AB 6AX 
    *  79   -0.000041  (   14,    1)  1AB 3AB 5AA 6AA 
    *  80   -0.000041  (    1,   14)  1AA 3AA 5AB 6AB 
    *  81    0.000041  (   12,   13)  3AA 4AB 6AX 
    *  82    0.000041  (   13,   12)  3AB 4AA 6AX 
    *  83    0.000036  (    7,   11)  2AX 5AA 6AB 
    *  84    0.000036  (   11,    7)  2AX 5AB 6AA 
    *  85   -0.000032  (    6,   12)  1AA 3AB 5AA 6AB 
    *  86   -0.000032  (   12,    6)  1AB 3AA 5AB 6AA 
    *  87   -0.000028  (    9,    4)  2AB 4AX 5AA 
    *  88   -0.000028  (    4,    9)  2AA 4AX 5AB 
    *  89    0.000028  (   14,   11)  2AB 5AA 6AX 
    *  90    0.000028  (   11,   14)  2AA 5AB 6AX 
    *  91    0.000028  (    3,    9)  1AA 4AX 5AB 
    *  92    0.000028  (    9,    3)  1AB 4AX 5AA 
    *  93    0.000016  (   12,    8)  3AX 5AB 6AA 
    *  94    0.000016  (    8,   12)  3AX 5AA 6AB 
    *  95   -0.000016  (   11,    8)  2AA 3AB 5AB 6AA 
    *  96   -0.000016  (    8,   11)  2AB 3AA 5AA 6AB 
    *  97    0.000013  (    0,    8)  1AA 2AA 3AB 5AB 
    *  98    0.000013  (    8,    0)  1AB 2AB 3AA 5AA 
    *  99    0.000012  (    2,   14)  2AA 3AA 5AB 6AB 
    * 100    0.000012  (   14,    2)  2AB 3AB 5AA 6AA 
    * 101    0.000009  (    8,   10)  1AB 3AA 5AA 6AB 
    * 102    0.000009  (   10,    8)  1AA 3AB 5AB 6AA 
    * 103    0.000007  (   13,    9)  4AX 5AB 6AA 
    * 104    0.000007  (    9,   13)  4AX 5AA 6AB 
    * 105    0.000007  (    1,    8)  1AA 3AX 5AB 
    * 106    0.000007  (    8,    1)  1AB 3AX 5AA 
    * 107   -0.000004  (    7,   12)  2AA 3AB 5AA 6AB 
    * 108   -0.000004  (   12,    7)  2AB 3AA 5AB 6AA 
    * 109   -0.000004  (    9,    5)  3AB 4AX 5AA 
    * 110   -0.000004  (    5,    9)  3AA 4AX 5AB 
    * 111    0.000001  (   12,   14)  3AA 5AB 6AX 
    * 112    0.000001  (   14,   12)  3AB 5AA 6AX 


   ==> DETCI root 7 information <==

    DETCI Root 7 energy =    -7.463165946739613

   The 225 most important determinants:

    *   1   -0.693922  (   10,    0)  1AX 2AB 6AA 
    *   2    0.693922  (    0,   10)  1AX 2AA 6AB 
    *   3   -0.116288  (   10,    1)  1AX 3AB 6AA 
    *   4    0.116288  (    1,   10)  1AX 3AA 6AB 
    *   5   -0.069973  (    0,    1)  1AX 2AA 3AB 
    *   6    0.069973  (    1,    0)  1AX 2AB 3AA 
    *   7    0.003054  (    2,   12)  2AA 3AX 6AB 
    *   8   -0.003054  (   12,    2)  2AB 3AX 6AA 
    *   9    0.002436  (   11,   10)  1AB 2AA 6AX 
    *  10   -0.002436  (   10,   11)  1AA 2AB 6AX 
    *  11    0.002229  (    2,    1)  1AB 2AA 3AX 
    *  12   -0.002229  (    1,    2)  1AA 2AB 3AX 
    *  13   -0.001958  (    2,   11)  2AX 3AA 6AB 
    *  14    0.001958  (   11,    2)  2AX 3AB 6AA 
    *  15   -0.001918  (    7,    6)  1AB 2AA 5AX 
    *  16    0.001918  (    6,    7)  1AA 2AB 5AX 
    *  17    0.001918  (    3,    4)  1AA 2AB 4AX 
    *  18   -0.001918  (    4,    3)  1AB 2AA 4AX 
    *  19    0.001844  (    2,    0)  1AB 2AX 3AA 
    *  20   -0.001844  (    0,    2)  1AA 2AX 3AB 
    *  21    0.001748  (   14,    6)  1AB 5AX 6AA 
    *  22   -0.001748  (    6,   14)  1AA 5AX 6AB 
    *  23   -0.001748  (    3,   13)  1AA 4AX 6AB 
    *  24    0.001748  (   13,    3)  1AB 4AX 6AA 
    *  25    0.001668  (    1,   11)  1AA 2AB 3AA 6AB 
    *  26   -0.001668  (   11,    1)  1AB 2AA 3AB 6AA 
    *  27    0.001552  (   12,    0)  1AB 2AB 3AA 6AA 
    *  28   -0.001552  (    0,   12)  1AA 2AA 3AB 6AB 
    *  29   -0.001261  (   13,    4)  2AB 4AX 6AA 
    *  30    0.001261  (    4,   13)  2AA 4AX 6AB 
    *  31    0.001261  (    7,   14)  2AA 5AX 6AB 
    *  32   -0.001261  (   14,    7)  2AB 5AX 6AA 
    *  33    0.000973  (   11,    0)  1AB 2AX 6AA 
    *  34   -0.000973  (    0,   11)  1AA 2AX 6AB 
    *  35   -0.000963  (   12,    1)  1AB 3AX 6AA 
    *  36    0.000963  (    1,   12)  1AA 3AX 6AB 
    *  37   -0.000831  (    2,   10)  1AB 2AA 3AA 6AB 
    *  38    0.000831  (   10,    2)  1AA 2AB 3AB 6AA 
    *  39   -0.000784  (   10,   12)  1AA 3AB 6AX 
    *  40    0.000784  (   12,   10)  1AB 3AA 6AX 
    *  41   -0.000573  (   12,   11)  2AB 3AA 6AX 
    *  42    0.000573  (   11,   12)  2AA 3AB 6AX 
    *  43   -0.000144  (   13,    5)  3AB 4AX 6AA 
    *  44   -0.000144  (   14,    8)  3AB 5AX 6AA 
    *  45    0.000144  (    8,   14)  3AA 5AX 6AB 
    *  46    0.000144  (    5,   13)  3AA 4AX 6AB 
    *  47   -0.000128  (    8,    6)  1AB 3AA 5AX 
    *  48    0.000128  (    3,    5)  1AA 3AB 4AX 
    *  49    0.000128  (    6,    8)  1AA 3AB 5AX 
    *  50   -0.000128  (    5,    3)  1AB 3AA 4AX 
    *  51    0.000059  (    7,    8)  2AA 3AB 5AX 
    *  52   -0.000059  (    8,    7)  2AB 3AA 5AX 
    *  53   -0.000059  (    5,    4)  2AB 3AA 4AX 
    *  54    0.000059  (    4,    5)  2AA 3AB 4AX 


   ==> DETCI root 8 information <==

    DETCI Root 8 energy =    -7.309111360768838

   The 225 most important determinants:

    *   1    0.582263  (    1,    1)  1AX 3AX 
    *   2   -0.385257  (    6,    6)  1AX 5AX 
    *   3   -0.385257  (    3,    3)  1AX 4AX 
    *   4    0.288607  (    1,   10)  1AX 3AA 6AB 
    *   5    0.288607  (   10,    1)  1AX 3AB 6AA 
    *   6   -0.273330  (    0,   10)  1AX 2AA 6AB 
    *   7   -0.273330  (   10,    0)  1AX 2AB 6AA 
    *   8   -0.149557  (    0,    1)  1AX 2AA 3AB 
    *   9   -0.149557  (    1,    0)  1AX 2AB 3AA 
    *  10    0.046058  (   10,   10)  1AX 6AX 
    *  11    0.025552  (    0,    0)  1AX 2AX 
    *  12    0.009579  (    1,    2)  1AA 2AB 3AX 
    *  13    0.009579  (    2,    1)  1AB 2AA 3AX 
    *  14    0.009526  (   12,    1)  1AB 3AX 6AA 
    *  15    0.009526  (    1,   12)  1AA 3AX 6AB 
    *  16   -0.005820  (    3,    5)  1AA 3AB 4AX 
    *  17   -0.005820  (    5,    3)  1AB 3AA 4AX 
    *  18   -0.005820  (    8,    6)  1AB 3AA 5AX 
    *  19   -0.005820  (    6,    8)  1AA 3AB 5AX 
    *  20   -0.003538  (    7,    6)  1AB 2AA 5AX 
    *  21   -0.003538  (    6,    7)  1AA 2AB 5AX 
    *  22   -0.003538  (    3,    4)  1AA 2AB 4AX 
    *  23   -0.003538  (    4,    3)  1AB 2AA 4AX 
    *  24   -0.002920  (    2,    0)  1AB 2AX 3AA 
    *  25   -0.002920  (    0,    2)  1AA 2AX 3AB 
    *  26    0.001986  (   10,    2)  1AA 2AB 3AB 6AA 
    *  27    0.001986  (    2,   10)  1AB 2AA 3AA 6AB 
    *  28   -0.001605  (    3,   13)  1AA 4AX 6AB 
    *  29   -0.001605  (   13,    3)  1AB 4AX 6AA 
    *  30   -0.001605  (   14,    6)  1AB 5AX 6AA 
    *  31   -0.001605  (    6,   14)  1AA 5AX 6AB 
    *  32   -0.001452  (    2,   12)  2AA 3AX 6AB 
    *  33   -0.001452  (   12,    2)  2AB 3AX 6AA 
    *  34    0.001345  (   12,   10)  1AB 3AA 6AX 
    *  35    0.001345  (   10,   12)  1AA 3AB 6AX 
    *  36   -0.001340  (    2,    2)  2AX 3AX 
    *  37    0.001340  (    9,    9)  4AX 5AX 
    *  38    0.001236  (    4,    4)  2AX 4AX 
    *  39    0.001236  (    7,    7)  2AX 5AX 
    *  40   -0.001114  (    0,   12)  1AA 2AA 3AB 6AB 
    *  41   -0.001114  (   12,    0)  1AB 2AB 3AA 6AA 
    *  42    0.000872  (    1,   11)  1AA 2AB 3AA 6AB 
    *  43    0.000872  (   11,    1)  1AB 2AA 3AB 6AA 
    *  44   -0.000803  (   10,   11)  1AA 2AB 6AX 
    *  45   -0.000803  (   11,   10)  1AB 2AA 6AX 
    *  46   -0.000750  (   12,   12)  3AX 6AX 
    *  47    0.000668  (   11,   11)  2AX 6AX 
    *  48   -0.000594  (    7,    8)  2AA 3AB 5AX 
    *  49   -0.000594  (    5,    4)  2AB 3AA 4AX 
    *  50   -0.000594  (    8,    7)  2AB 3AA 5AX 
    *  51   -0.000594  (    4,    5)  2AA 3AB 4AX 
    *  52    0.000408  (   14,   14)  5AX 6AX 
    *  53    0.000408  (   13,   13)  4AX 6AX 
    *  54    0.000370  (   14,    8)  3AB 5AX 6AA 
    *  55    0.000370  (    8,   14)  3AA 5AX 6AB 
    *  56    0.000370  (   13,    5)  3AB 4AX 6AA 
    *  57    0.000370  (    5,   13)  3AA 4AX 6AB 
    *  58   -0.000283  (   11,   12)  2AA 3AB 6AX 
    *  59   -0.000283  (   12,   11)  2AB 3AA 6AX 
    *  60    0.000200  (   11,    0)  1AB 2AX 6AA 
    *  61    0.000200  (    0,   11)  1AA 2AX 6AB 
    *  62    0.000163  (    4,   13)  2AA 4AX 6AB 
    *  63    0.000163  (   14,    7)  2AB 5AX 6AA 
    *  64    0.000163  (    7,   14)  2AA 5AX 6AB 
    *  65    0.000163  (   13,    4)  2AB 4AX 6AA 
    *  66    0.000091  (    8,    8)  3AX 5AX 
    *  67    0.000091  (    5,    5)  3AX 4AX 
    *  68   -0.000048  (    2,   11)  2AX 3AA 6AB 
    *  69   -0.000048  (   11,    2)  2AX 3AB 6AA 


   ==> DETCI root 9 information <==

    DETCI Root 9 energy =    -7.292560534443769

   The 225 most important determinants:

    *   1   -0.523003  (    1,    6)  1AX 3AA 5AB 
    *   2    0.523003  (    6,    1)  1AX 3AB 5AA 
    *   3   -0.396500  (    1,    3)  1AX 3AA 4AB 
    *   4    0.396500  (    3,    1)  1AX 3AB 4AA 
    *   5    0.182319  (    6,   10)  1AX 5AA 6AB 
    *   6   -0.182319  (   10,    6)  1AX 5AB 6AA 
    *   7    0.138220  (    3,   10)  1AX 4AA 6AB 
    *   8   -0.138220  (   10,    3)  1AX 4AB 6AA 
    *   9    0.102348  (    0,    6)  1AX 2AA 5AB 
    *  10   -0.102348  (    6,    0)  1AX 2AB 5AA 
    *  11   -0.077593  (    3,    0)  1AX 2AB 4AA 
    *  12    0.077593  (    0,    3)  1AX 2AA 4AB 
    *  13   -0.008512  (    1,    7)  1AA 2AB 3AA 5AB 
    *  14    0.008512  (    7,    1)  1AB 2AA 3AB 5AA 
    *  15   -0.007275  (    2,    6)  1AB 2AA 3AA 5AB 
    *  16    0.007275  (    6,    2)  1AA 2AB 3AB 5AA 
    *  17    0.006453  (    4,    1)  1AB 2AA 3AB 4AA 
    *  18   -0.006453  (    1,    4)  1AA 2AB 3AA 4AB 
    *  19   -0.006189  (    1,   14)  1AA 3AA 5AB 6AB 
    *  20    0.006189  (   14,    1)  1AB 3AB 5AA 6AA 
    *  21   -0.005923  (    1,    8)  1AA 3AX 5AB 
    *  22    0.005923  (    8,    1)  1AB 3AX 5AA 
    *  23   -0.005922  (   12,    6)  1AB 3AA 5AB 6AA 
    *  24    0.005922  (    6,   12)  1AA 3AB 5AA 6AB 
    *  25   -0.005515  (    2,    3)  1AB 2AA 3AA 4AB 
    *  26    0.005515  (    3,    2)  1AA 2AB 3AB 4AA 
    *  27   -0.004692  (    1,   13)  1AA 3AA 4AB 6AB 
    *  28    0.004692  (   13,    1)  1AB 3AB 4AA 6AA 
    *  29    0.004491  (    5,    1)  1AB 3AX 4AA 
    *  30   -0.004491  (    1,    5)  1AA 3AX 4AB 
    *  31   -0.004489  (   12,    3)  1AB 3AA 4AB 6AA 
    *  32    0.004489  (    3,   12)  1AA 3AB 4AA 6AB 
    *  33   -0.003398  (    3,    9)  1AA 4AX 5AB 
    *  34    0.003398  (    9,    3)  1AB 4AX 5AA 
    *  35   -0.002576  (    9,    6)  1AB 4AA 5AX 
    *  36    0.002576  (    6,    9)  1AA 4AB 5AX 
    *  37    0.002196  (    0,    8)  1AA 2AA 3AB 5AB 
    *  38   -0.002196  (    8,    0)  1AB 2AB 3AA 5AA 
    *  39   -0.002127  (    7,    0)  1AB 2AX 5AA 
    *  40    0.002127  (    0,    7)  1AA 2AX 5AB 
    *  41    0.001665  (    0,    5)  1AA 2AA 3AB 4AB 
    *  42   -0.001665  (    5,    0)  1AB 2AB 3AA 4AA 
    *  43    0.001612  (    0,    4)  1AA 2AX 4AB 
    *  44   -0.001612  (    4,    0)  1AB 2AX 4AA 
    *  45   -0.001586  (    7,    2)  2AX 3AB 5AA 
    *  46    0.001586  (    2,    7)  2AX 3AA 5AB 
    *  47   -0.001202  (    4,    2)  2AX 3AB 4AA 
    *  48    0.001202  (    2,    4)  2AX 3AA 4AB 
    *  49   -0.001047  (    5,    9)  3AA 4AX 5AB 
    *  50    0.001047  (    9,    5)  3AB 4AX 5AA 
    *  51    0.000975  (    8,    2)  2AB 3AX 5AA 
    *  52   -0.000975  (    2,    8)  2AA 3AX 5AB 
    *  53    0.000924  (    2,   14)  2AA 3AA 5AB 6AB 
    *  54   -0.000924  (   14,    2)  2AB 3AB 5AA 6AA 
    *  55    0.000793  (    8,    9)  3AA 4AB 5AX 
    *  56   -0.000793  (    9,    8)  3AB 4AA 5AX 
    *  57    0.000780  (    8,   10)  1AB 3AA 5AA 6AB 
    *  58   -0.000780  (   10,    8)  1AA 3AB 5AB 6AA 
    *  59    0.000749  (   11,    6)  1AB 2AA 5AB 6AA 
    *  60   -0.000749  (    6,   11)  1AA 2AB 5AA 6AB 
    *  61    0.000739  (    5,    2)  2AB 3AX 4AA 
    *  62   -0.000739  (    2,    5)  2AA 3AX 4AB 
    *  63    0.000700  (    2,   13)  2AA 3AA 4AB 6AB 
    *  64   -0.000700  (   13,    2)  2AB 3AB 4AA 6AA 
    *  65   -0.000645  (   14,   12)  3AB 5AA 6AX 
    *  66    0.000645  (   12,   14)  3AA 5AB 6AX 
    *  67    0.000591  (    5,   10)  1AB 3AA 4AA 6AB 
    *  68   -0.000591  (   10,    5)  1AA 3AB 4AB 6AA 
    *  69    0.000568  (   11,    3)  1AB 2AA 4AB 6AA 
    *  70   -0.000568  (    3,   11)  1AA 2AB 4AA 6AB 
    *  71   -0.000556  (    7,   12)  2AA 3AB 5AA 6AB 
    *  72    0.000556  (   12,    7)  2AB 3AA 5AB 6AA 
    *  73    0.000489  (   12,   13)  3AA 4AB 6AX 
    *  74   -0.000489  (   13,   12)  3AB 4AA 6AX 
    *  75    0.000474  (    7,   10)  1AB 2AA 5AA 6AB 
    *  76   -0.000474  (   10,    7)  1AA 2AB 5AB 6AA 
    *  77    0.000422  (   12,    4)  2AB 3AA 4AB 6AA 
    *  78   -0.000422  (    4,   12)  2AA 3AB 4AA 6AB 
    *  79   -0.000414  (   14,    0)  1AB 2AB 5AA 6AA 
    *  80    0.000414  (    0,   14)  1AA 2AA 5AB 6AB 
    *  81   -0.000390  (    8,   12)  3AX 5AA 6AB 
    *  82    0.000390  (   12,    8)  3AX 5AB 6AA 
    *  83    0.000359  (    4,   10)  1AB 2AA 4AA 6AB 
    *  84   -0.000359  (   10,    4)  1AA 2AB 4AB 6AA 
    *  85    0.000351  (   14,   10)  1AB 5AA 6AX 
    *  86   -0.000351  (   10,   14)  1AA 5AB 6AX 
    *  87    0.000345  (    8,   11)  2AB 3AA 5AA 6AB 
    *  88   -0.000345  (   11,    8)  2AA 3AB 5AB 6AA 
    *  89    0.000334  (   11,    7)  2AX 5AB 6AA 
    *  90   -0.000334  (    7,   11)  2AX 5AA 6AB 
    *  91    0.000324  (   13,    9)  4AX 5AB 6AA 
    *  92   -0.000324  (    9,   13)  4AX 5AA 6AB 
    *  93   -0.000314  (   13,    0)  1AB 2AB 4AA 6AA 
    *  94    0.000314  (    0,   13)  1AA 2AA 4AB 6AB 
    *  95   -0.000296  (    5,   12)  3AX 4AA 6AB 
    *  96    0.000296  (   12,    5)  3AX 4AB 6AA 
    *  97    0.000266  (   13,   10)  1AB 4AA 6AX 
    *  98   -0.000266  (   10,   13)  1AA 4AB 6AX 
    *  99    0.000262  (    5,   11)  2AB 3AA 4AA 6AB 
    * 100   -0.000262  (   11,    5)  2AA 3AB 4AB 6AA 
    * 101   -0.000253  (    4,   11)  2AX 4AA 6AB 
    * 102    0.000253  (   11,    4)  2AX 4AB 6AA 
    * 103   -0.000252  (    9,    4)  2AB 4AX 5AA 
    * 104    0.000252  (    4,    9)  2AA 4AX 5AB 
    * 105    0.000246  (    9,   14)  4AA 5AX 6AB 
    * 106   -0.000246  (   14,    9)  4AB 5AX 6AA 
    * 107    0.000191  (    9,    7)  2AB 4AA 5AX 
    * 108   -0.000191  (    7,    9)  2AA 4AB 5AX 
    * 109   -0.000151  (   14,   11)  2AB 5AA 6AX 
    * 110    0.000151  (   11,   14)  2AA 5AB 6AX 
    * 111    0.000114  (   11,   13)  2AA 4AB 6AX 
    * 112   -0.000114  (   13,   11)  2AB 4AA 6AX 


   ==> DETCI root 10 information <==

    DETCI Root 10 energy =    -7.292560534443767

   The 225 most important determinants:

    *   1   -0.523003  (    1,    3)  1AX 3AA 4AB 
    *   2    0.523003  (    3,    1)  1AX 3AB 4AA 
    *   3    0.396500  (    1,    6)  1AX 3AA 5AB 
    *   4   -0.396500  (    6,    1)  1AX 3AB 5AA 
    *   5   -0.182319  (   10,    3)  1AX 4AB 6AA 
    *   6    0.182319  (    3,   10)  1AX 4AA 6AB 
    *   7   -0.138220  (    6,   10)  1AX 5AA 6AB 
    *   8    0.138220  (   10,    6)  1AX 5AB 6AA 
    *   9    0.102348  (    0,    3)  1AX 2AA 4AB 
    *  10   -0.102348  (    3,    0)  1AX 2AB 4AA 
    *  11   -0.077593  (    0,    6)  1AX 2AA 5AB 
    *  12    0.077593  (    6,    0)  1AX 2AB 5AA 
    *  13   -0.008512  (    1,    4)  1AA 2AB 3AA 4AB 
    *  14    0.008512  (    4,    1)  1AB 2AA 3AB 4AA 
    *  15   -0.007275  (    2,    3)  1AB 2AA 3AA 4AB 
    *  16    0.007275  (    3,    2)  1AA 2AB 3AB 4AA 
    *  17    0.006453  (    1,    7)  1AA 2AB 3AA 5AB 
    *  18   -0.006453  (    7,    1)  1AB 2AA 3AB 5AA 
    *  19   -0.006189  (    1,   13)  1AA 3AA 4AB 6AB 
    *  20    0.006189  (   13,    1)  1AB 3AB 4AA 6AA 
    *  21   -0.005923  (    1,    5)  1AA 3AX 4AB 
    *  22    0.005923  (    5,    1)  1AB 3AX 4AA 
    *  23   -0.005922  (   12,    3)  1AB 3AA 4AB 6AA 
    *  24    0.005922  (    3,   12)  1AA 3AB 4AA 6AB 
    *  25    0.005515  (    2,    6)  1AB 2AA 3AA 5AB 
    *  26   -0.005515  (    6,    2)  1AA 2AB 3AB 5AA 
    *  27    0.004692  (    1,   14)  1AA 3AA 5AB 6AB 
    *  28   -0.004692  (   14,    1)  1AB 3AB 5AA 6AA 
    *  29   -0.004491  (    8,    1)  1AB 3AX 5AA 
    *  30    0.004491  (    1,    8)  1AA 3AX 5AB 
    *  31    0.004489  (   12,    6)  1AB 3AA 5AB 6AA 
    *  32   -0.004489  (    6,   12)  1AA 3AB 5AA 6AB 
    *  33   -0.003398  (    9,    6)  1AB 4AA 5AX 
    *  34    0.003398  (    6,    9)  1AA 4AB 5AX 
    *  35   -0.002576  (    9,    3)  1AB 4AX 5AA 
    *  36    0.002576  (    3,    9)  1AA 4AX 5AB 
    *  37   -0.002196  (    5,    0)  1AB 2AB 3AA 4AA 
    *  38    0.002196  (    0,    5)  1AA 2AA 3AB 4AB 
    *  39    0.002127  (    0,    4)  1AA 2AX 4AB 
    *  40   -0.002127  (    4,    0)  1AB 2AX 4AA 
    *  41    0.001665  (    8,    0)  1AB 2AB 3AA 5AA 
    *  42   -0.001665  (    0,    8)  1AA 2AA 3AB 5AB 
    *  43    0.001612  (    7,    0)  1AB 2AX 5AA 
    *  44   -0.001612  (    0,    7)  1AA 2AX 5AB 
    *  45    0.001586  (    2,    4)  2AX 3AA 4AB 
    *  46   -0.001586  (    4,    2)  2AX 3AB 4AA 
    *  47    0.001202  (    7,    2)  2AX 3AB 5AA 
    *  48   -0.001202  (    2,    7)  2AX 3AA 5AB 
    *  49    0.001047  (    8,    9)  3AA 4AB 5AX 
    *  50   -0.001047  (    9,    8)  3AB 4AA 5AX 
    *  51    0.000975  (    5,    2)  2AB 3AX 4AA 
    *  52   -0.000975  (    2,    5)  2AA 3AX 4AB 
    *  53    0.000924  (    2,   13)  2AA 3AA 4AB 6AB 
    *  54   -0.000924  (   13,    2)  2AB 3AB 4AA 6AA 
    *  55    0.000793  (    5,    9)  3AA 4AX 5AB 
    *  56   -0.000793  (    9,    5)  3AB 4AX 5AA 
    *  57    0.000780  (    5,   10)  1AB 3AA 4AA 6AB 
    *  58   -0.000780  (   10,    5)  1AA 3AB 4AB 6AA 
    *  59   -0.000749  (    3,   11)  1AA 2AB 4AA 6AB 
    *  60    0.000749  (   11,    3)  1AB 2AA 4AB 6AA 
    *  61    0.000739  (    2,    8)  2AA 3AX 5AB 
    *  62   -0.000739  (    8,    2)  2AB 3AX 5AA 
    *  63    0.000700  (   14,    2)  2AB 3AB 5AA 6AA 
    *  64   -0.000700  (    2,   14)  2AA 3AA 5AB 6AB 
    *  65   -0.000645  (   13,   12)  3AB 4AA 6AX 
    *  66    0.000645  (   12,   13)  3AA 4AB 6AX 
    *  67   -0.000591  (    8,   10)  1AB 3AA 5AA 6AB 
    *  68    0.000591  (   10,    8)  1AA 3AB 5AB 6AA 
    *  69   -0.000568  (   11,    6)  1AB 2AA 5AB 6AA 
    *  70    0.000568  (    6,   11)  1AA 2AB 5AA 6AB 
    *  71    0.000556  (   12,    4)  2AB 3AA 4AB 6AA 
    *  72   -0.000556  (    4,   12)  2AA 3AB 4AA 6AB 
    *  73   -0.000489  (   12,   14)  3AA 5AB 6AX 
    *  74    0.000489  (   14,   12)  3AB 5AA 6AX 
    *  75   -0.000474  (   10,    4)  1AA 2AB 4AB 6AA 
    *  76    0.000474  (    4,   10)  1AB 2AA 4AA 6AB 
    *  77   -0.000422  (   12,    7)  2AB 3AA 5AB 6AA 
    *  78    0.000422  (    7,   12)  2AA 3AB 5AA 6AB 
    *  79   -0.000414  (   13,    0)  1AB 2AB 4AA 6AA 
    *  80    0.000414  (    0,   13)  1AA 2AA 4AB 6AB 
    *  81    0.000390  (   12,    5)  3AX 4AB 6AA 
    *  82   -0.000390  (    5,   12)  3AX 4AA 6AB 
    *  83    0.000359  (   10,    7)  1AA 2AB 5AB 6AA 
    *  84   -0.000359  (    7,   10)  1AB 2AA 5AA 6AB 
    *  85   -0.000351  (   10,   13)  1AA 4AB 6AX 
    *  86    0.000351  (   13,   10)  1AB 4AA 6AX 
    *  87    0.000345  (    5,   11)  2AB 3AA 4AA 6AB 
    *  88   -0.000345  (   11,    5)  2AA 3AB 4AB 6AA 
    *  89    0.000334  (   11,    4)  2AX 4AB 6AA 
    *  90   -0.000334  (    4,   11)  2AX 4AA 6AB 
    *  91   -0.000324  (   14,    9)  4AB 5AX 6AA 
    *  92    0.000324  (    9,   14)  4AA 5AX 6AB 
    *  93    0.000314  (   14,    0)  1AB 2AB 5AA 6AA 
    *  94   -0.000314  (    0,   14)  1AA 2AA 5AB 6AB 
    *  95    0.000296  (    8,   12)  3AX 5AA 6AB 
    *  96   -0.000296  (   12,    8)  3AX 5AB 6AA 
    *  97   -0.000266  (   14,   10)  1AB 5AA 6AX 
    *  98    0.000266  (   10,   14)  1AA 5AB 6AX 
    *  99   -0.000262  (    8,   11)  2AB 3AA 5AA 6AB 
    * 100    0.000262  (   11,    8)  2AA 3AB 5AB 6AA 
    * 101    0.000253  (    7,   11)  2AX 5AA 6AB 
    * 102   -0.000253  (   11,    7)  2AX 5AB 6AA 
    * 103    0.000252  (    9,    7)  2AB 4AA 5AX 
    * 104   -0.000252  (    7,    9)  2AA 4AB 5AX 
    * 105    0.000246  (    9,   13)  4AX 5AA 6AB 
    * 106   -0.000246  (   13,    9)  4AX 5AB 6AA 
    * 107   -0.000191  (    4,    9)  2AA 4AX 5AB 
    * 108    0.000191  (    9,    4)  2AB 4AX 5AA 
    * 109   -0.000151  (   13,   11)  2AB 4AA 6AX 
    * 110    0.000151  (   11,   13)  2AA 4AB 6AX 
    * 111    0.000114  (   14,   11)  2AB 5AA 6AX 
    * 112   -0.000114  (   11,   14)  2AA 5AB 6AX 


   ==> DETCI root 11 information <==

    DETCI Root 11 energy =    -7.247676303598482

   The 225 most important determinants:

    *   1    0.706793  (    3,    6)  1AX 4AA 5AB 
    *   2   -0.706793  (    6,    3)  1AX 4AB 5AA 
    *   3    0.009836  (    4,    6)  1AB 2AA 4AA 5AB 
    *   4    0.009836  (    3,    7)  1AA 2AB 4AA 5AB 
    *   5   -0.009836  (    6,    4)  1AA 2AB 4AB 5AA 
    *   6   -0.009836  (    7,    3)  1AB 2AA 4AB 5AA 
    *   7    0.007338  (   13,    6)  1AB 4AA 5AB 6AA 
    *   8    0.007338  (    3,   14)  1AA 4AA 5AB 6AB 
    *   9   -0.007338  (   14,    3)  1AB 4AB 5AA 6AA 
    *  10   -0.007338  (    6,   13)  1AA 4AB 5AA 6AB 
    *  11   -0.007023  (    9,    1)  1AB 3AB 4AA 5AA 
    *  12    0.007023  (    1,    9)  1AA 3AA 4AB 5AB 
    *  13    0.006135  (    9,    0)  1AB 2AB 4AA 5AA 
    *  14   -0.006135  (    0,    9)  1AA 2AA 4AB 5AB 
    *  15    0.003826  (   10,    9)  1AA 4AB 5AB 6AA 
    *  16   -0.003826  (    9,   10)  1AB 4AA 5AA 6AB 
    *  17    0.002804  (    5,    6)  1AB 3AA 4AA 5AB 
    *  18    0.002804  (    3,    8)  1AA 3AB 4AA 5AB 
    *  19   -0.002804  (    8,    3)  1AB 3AA 4AB 5AA 
    *  20   -0.002804  (    6,    5)  1AA 3AB 4AB 5AA 
    *  21   -0.002674  (    5,    8)  3AX 4AA 5AB 
    *  22    0.002674  (    8,    5)  3AX 4AB 5AA 
    *  23   -0.002537  (    4,    7)  2AX 4AA 5AB 
    *  24    0.002537  (    7,    4)  2AX 4AB 5AA 
    *  25    0.001875  (    4,    8)  2AA 3AB 4AA 5AB 
    *  26    0.001875  (    5,    7)  2AB 3AA 4AA 5AB 
    *  27   -0.001875  (    8,    4)  2AB 3AA 4AB 5AA 
    *  28   -0.001875  (    7,    5)  2AA 3AB 4AB 5AA 
    *  29   -0.001308  (    4,   14)  2AA 4AA 5AB 6AB 
    *  30   -0.001308  (   13,    7)  2AB 4AA 5AB 6AA 
    *  31    0.001308  (   14,    4)  2AB 4AB 5AA 6AA 
    *  32    0.001308  (    7,   13)  2AA 4AB 5AA 6AB 
    *  33   -0.000969  (   13,   14)  4AA 5AB 6AX 
    *  34    0.000969  (   14,   13)  4AB 5AA 6AX 
    *  35   -0.000416  (   14,    5)  3AB 4AB 5AA 6AA 
    *  36    0.000416  (    5,   14)  3AA 4AA 5AB 6AB 
    *  37   -0.000416  (    8,   13)  3AA 4AB 5AA 6AB 
    *  38    0.000416  (   13,    8)  3AB 4AA 5AB 6AA 
    *  39   -0.000113  (    9,   12)  3AB 4AA 5AA 6AB 
    *  40    0.000113  (   12,    9)  3AA 4AB 5AB 6AA 
    *  41    0.000083  (    2,    9)  2AA 3AA 4AB 5AB 
    *  42   -0.000083  (    9,    2)  2AB 3AB 4AA 5AA 
    *  43   -0.000050  (   11,    9)  2AA 4AB 5AB 6AA 
    *  44    0.000050  (    9,   11)  2AB 4AA 5AA 6AB 


   ==> DETCI root 12 information <==

    DETCI Root 12 energy =    -7.213521425972500

   The 225 most important determinants:

    *   1   -0.706870  (    6,    6)  1AX 5AX 
    *   2    0.706870  (    3,    3)  1AX 4AX 
    *   3   -0.009674  (    7,    6)  1AB 2AA 5AX 
    *   4   -0.009674  (    6,    7)  1AA 2AB 5AX 
    *   5    0.009674  (    4,    3)  1AB 2AA 4AX 
    *   6    0.009674  (    3,    4)  1AA 2AB 4AX 
    *   7   -0.007228  (   14,    6)  1AB 5AX 6AA 
    *   8    0.007228  (    3,   13)  1AA 4AX 6AB 
    *   9    0.007228  (   13,    3)  1AB 4AX 6AA 
    *  10   -0.007228  (    6,   14)  1AA 5AX 6AB 
    *  11   -0.002993  (    8,    6)  1AB 3AA 5AX 
    *  12    0.002993  (    3,    5)  1AA 3AB 4AX 
    *  13   -0.002993  (    6,    8)  1AA 3AB 5AX 
    *  14    0.002993  (    5,    3)  1AB 3AA 4AX 
    *  15    0.002636  (    8,    8)  3AX 5AX 
    *  16   -0.002636  (    5,    5)  3AX 4AX 
    *  17    0.002512  (    7,    7)  2AX 5AX 
    *  18   -0.002512  (    4,    4)  2AX 4AX 
    *  19   -0.001844  (    8,    7)  2AB 3AA 5AX 
    *  20   -0.001844  (    7,    8)  2AA 3AB 5AX 
    *  21    0.001844  (    4,    5)  2AA 3AB 4AX 
    *  22    0.001844  (    5,    4)  2AB 3AA 4AX 
    *  23    0.001294  (   14,    7)  2AB 5AX 6AA 
    *  24    0.001294  (    7,   14)  2AA 5AX 6AB 
    *  25   -0.001294  (    4,   13)  2AA 4AX 6AB 
    *  26   -0.001294  (   13,    4)  2AB 4AX 6AA 
    *  27    0.000961  (   14,   14)  5AX 6AX 
    *  28   -0.000961  (   13,   13)  4AX 6AX 
    *  29    0.000398  (   13,    5)  3AB 4AX 6AA 
    *  30   -0.000398  (   14,    8)  3AB 5AX 6AA 
    *  31   -0.000398  (    8,   14)  3AA 5AX 6AB 
    *  32    0.000398  (    5,   13)  3AA 4AX 6AB 
    *  33   -0.000182  (    6,    3)  1AX 4AB 5AA 
    *  34   -0.000182  (    3,    6)  1AX 4AA 5AB 
    *  35   -0.000002  (    7,    3)  1AB 2AA 4AB 5AA 
    *  36   -0.000002  (    3,    7)  1AA 2AB 4AA 5AB 
    *  37   -0.000002  (    4,    6)  1AB 2AA 4AA 5AB 
    *  38   -0.000002  (    6,    4)  1AA 2AB 4AB 5AA 
    *  39   -0.000002  (    6,   13)  1AA 4AB 5AA 6AB 
    *  40   -0.000002  (   13,    6)  1AB 4AA 5AB 6AA 
    *  41   -0.000002  (    3,   14)  1AA 4AA 5AB 6AB 
    *  42   -0.000002  (   14,    3)  1AB 4AB 5AA 6AA 
    *  43   -0.000001  (    5,    6)  1AB 3AA 4AA 5AB 
    *  44   -0.000001  (    6,    5)  1AA 3AB 4AB 5AA 
    *  45   -0.000001  (    8,    3)  1AB 3AA 4AB 5AA 
    *  46   -0.000001  (    3,    8)  1AA 3AB 4AA 5AB 
    *  47    0.000001  (    8,    5)  3AX 4AB 5AA 
    *  48    0.000001  (    5,    8)  3AX 4AA 5AB 
    *  49    0.000001  (    7,    4)  2AX 4AB 5AA 
    *  50    0.000001  (    4,    7)  2AX 4AA 5AB 
    *  51   -0.000000  (    4,    8)  2AA 3AB 4AA 5AB 
    *  52   -0.000000  (    5,    7)  2AB 3AA 4AA 5AB 
    *  53   -0.000000  (    8,    4)  2AB 3AA 4AB 5AA 
    *  54   -0.000000  (    7,    5)  2AA 3AB 4AB 5AA 
    *  55    0.000000  (   13,    7)  2AB 4AA 5AB 6AA 
    *  56    0.000000  (    7,   13)  2AA 4AB 5AA 6AB 
    *  57    0.000000  (    4,   14)  2AA 4AA 5AB 6AB 
    *  58    0.000000  (   14,    4)  2AB 4AB 5AA 6AA 
    *  59    0.000000  (   13,   14)  4AA 5AB 6AX 
    *  60    0.000000  (   14,   13)  4AB 5AA 6AX 
    *  61   -0.000000  (    5,   14)  3AA 4AA 5AB 6AB 
    *  62   -0.000000  (   13,    8)  3AB 4AA 5AB 6AA 
    *  63   -0.000000  (   14,    5)  3AB 4AB 5AA 6AA 
    *  64   -0.000000  (    8,   13)  3AA 4AB 5AA 6AB 


   ==> DETCI root 13 information <==

    DETCI Root 13 energy =    -7.213521425972496

   The 225 most important determinants:

    *   1   -0.706870  (    6,    3)  1AX 4AB 5AA 
    *   2   -0.706870  (    3,    6)  1AX 4AA 5AB 
    *   3   -0.009674  (    7,    3)  1AB 2AA 4AB 5AA 
    *   4   -0.009674  (    6,    4)  1AA 2AB 4AB 5AA 
    *   5   -0.009674  (    3,    7)  1AA 2AB 4AA 5AB 
    *   6   -0.009674  (    4,    6)  1AB 2AA 4AA 5AB 
    *   7   -0.007228  (   14,    3)  1AB 4AB 5AA 6AA 
    *   8   -0.007228  (    6,   13)  1AA 4AB 5AA 6AB 
    *   9   -0.007228  (   13,    6)  1AB 4AA 5AB 6AA 
    *  10   -0.007228  (    3,   14)  1AA 4AA 5AB 6AB 
    *  11   -0.002993  (    8,    3)  1AB 3AA 4AB 5AA 
    *  12   -0.002993  (    3,    8)  1AA 3AB 4AA 5AB 
    *  13   -0.002993  (    6,    5)  1AA 3AB 4AB 5AA 
    *  14   -0.002993  (    5,    6)  1AB 3AA 4AA 5AB 
    *  15    0.002636  (    8,    5)  3AX 4AB 5AA 
    *  16    0.002636  (    5,    8)  3AX 4AA 5AB 
    *  17    0.002512  (    7,    4)  2AX 4AB 5AA 
    *  18    0.002512  (    4,    7)  2AX 4AA 5AB 
    *  19   -0.001844  (    8,    4)  2AB 3AA 4AB 5AA 
    *  20   -0.001844  (    7,    5)  2AA 3AB 4AB 5AA 
    *  21   -0.001844  (    5,    7)  2AB 3AA 4AA 5AB 
    *  22   -0.001844  (    4,    8)  2AA 3AB 4AA 5AB 
    *  23    0.001294  (   14,    4)  2AB 4AB 5AA 6AA 
    *  24    0.001294  (    7,   13)  2AA 4AB 5AA 6AB 
    *  25    0.001294  (   13,    7)  2AB 4AA 5AB 6AA 
    *  26    0.001294  (    4,   14)  2AA 4AA 5AB 6AB 
    *  27    0.000961  (   14,   13)  4AB 5AA 6AX 
    *  28    0.000961  (   13,   14)  4AA 5AB 6AX 
    *  29   -0.000398  (    8,   13)  3AA 4AB 5AA 6AB 
    *  30   -0.000398  (   14,    5)  3AB 4AB 5AA 6AA 
    *  31   -0.000398  (   13,    8)  3AB 4AA 5AB 6AA 
    *  32   -0.000398  (    5,   14)  3AA 4AA 5AB 6AB 
    *  33   -0.000182  (    3,    3)  1AX 4AX 
    *  34    0.000182  (    6,    6)  1AX 5AX 
    *  35    0.000002  (    7,    6)  1AB 2AA 5AX 
    *  36   -0.000002  (    4,    3)  1AB 2AA 4AX 
    *  37   -0.000002  (    3,    4)  1AA 2AB 4AX 
    *  38    0.000002  (    6,    7)  1AA 2AB 5AX 
    *  39   -0.000002  (    3,   13)  1AA 4AX 6AB 
    *  40    0.000002  (    6,   14)  1AA 5AX 6AB 
    *  41    0.000002  (   14,    6)  1AB 5AX 6AA 
    *  42   -0.000002  (   13,    3)  1AB 4AX 6AA 
    *  43   -0.000001  (    3,    5)  1AA 3AB 4AX 
    *  44    0.000001  (    8,    6)  1AB 3AA 5AX 
    *  45    0.000001  (    6,    8)  1AA 3AB 5AX 
    *  46   -0.000001  (    5,    3)  1AB 3AA 4AX 
    *  47    0.000001  (    5,    5)  3AX 4AX 
    *  48   -0.000001  (    8,    8)  3AX 5AX 
    *  49    0.000001  (    4,    4)  2AX 4AX 
    *  50   -0.000001  (    7,    7)  2AX 5AX 
    *  51   -0.000000  (    5,    4)  2AB 3AA 4AX 
    *  52    0.000000  (    7,    8)  2AA 3AB 5AX 
    *  53   -0.000000  (    4,    5)  2AA 3AB 4AX 
    *  54    0.000000  (    8,    7)  2AB 3AA 5AX 
    *  55    0.000000  (    4,   13)  2AA 4AX 6AB 
    *  56   -0.000000  (    7,   14)  2AA 5AX 6AB 
    *  57   -0.000000  (   14,    7)  2AB 5AX 6AA 
    *  58    0.000000  (   13,    4)  2AB 4AX 6AA 
    *  59   -0.000000  (   14,   14)  5AX 6AX 
    *  60    0.000000  (   13,   13)  4AX 6AX 
    *  61   -0.000000  (    5,   13)  3AA 4AX 6AB 
    *  62    0.000000  (   14,    8)  3AB 5AX 6AA 
    *  63   -0.000000  (   13,    5)  3AB 4AX 6AA 
    *  64    0.000000  (    8,   14)  3AA 5AX 6AB 


   ==> DETCI root 14 information <==

    DETCI Root 14 energy =    -7.206426645298654

   The 225 most important determinants:

    *   1    0.621434  (    0,   10)  1AX 2AA 6AB 
    *   2    0.621434  (   10,    0)  1AX 2AB 6AA 
    *   3    0.410987  (    1,    1)  1AX 3AX 
    *   4    0.154358  (    1,   10)  1AX 3AA 6AB 
    *   5    0.154358  (   10,    1)  1AX 3AB 6AA 
    *   6   -0.068248  (    1,    0)  1AX 2AB 3AA 
    *   7   -0.068248  (    0,    1)  1AX 2AA 3AB 
    *   8   -0.027777  (   10,   10)  1AX 6AX 
    *   9    0.019253  (    0,    0)  1AX 2AX 
    *  10    0.011314  (    6,    6)  1AX 5AX 
    *  11    0.011314  (    3,    3)  1AX 4AX 
    *  12    0.008876  (    2,    1)  1AB 2AA 3AX 
    *  13    0.008876  (    1,    2)  1AA 2AB 3AX 
    *  14    0.006358  (   12,    1)  1AB 3AX 6AA 
    *  15    0.006358  (    1,   12)  1AA 3AX 6AB 
    *  16   -0.003604  (    0,    2)  1AA 2AX 3AB 
    *  17   -0.003604  (    2,    0)  1AB 2AX 3AA 
    *  18   -0.002839  (    5,    3)  1AB 3AA 4AX 
    *  19   -0.002839  (    3,    5)  1AA 3AB 4AX 
    *  20   -0.002839  (    8,    6)  1AB 3AA 5AX 
    *  21   -0.002839  (    6,    8)  1AA 3AB 5AX 
    *  22   -0.002515  (    1,   11)  1AA 2AB 3AA 6AB 
    *  23   -0.002515  (   11,    1)  1AB 2AA 3AB 6AA 
    *  24    0.002098  (   12,    2)  2AB 3AX 6AA 
    *  25    0.002098  (    2,   12)  2AA 3AX 6AB 
    *  26   -0.001817  (    0,   12)  1AA 2AA 3AB 6AB 
    *  27   -0.001817  (   12,    0)  1AB 2AB 3AA 6AA 
    *  28   -0.001757  (    7,    6)  1AB 2AA 5AX 
    *  29   -0.001757  (    6,    7)  1AA 2AB 5AX 
    *  30   -0.001757  (    4,    3)  1AB 2AA 4AX 
    *  31   -0.001757  (    3,    4)  1AA 2AB 4AX 
    *  32   -0.001632  (   11,   11)  2AX 6AX 
    *  33   -0.001584  (   11,    2)  2AX 3AB 6AA 
    *  34   -0.001584  (    2,   11)  2AX 3AA 6AB 
    *  35   -0.001326  (   13,    3)  1AB 4AX 6AA 
    *  36   -0.001326  (    3,   13)  1AA 4AX 6AB 
    *  37   -0.001326  (   14,    6)  1AB 5AX 6AA 
    *  38   -0.001326  (    6,   14)  1AA 5AX 6AB 
    *  39    0.001103  (    4,   13)  2AA 4AX 6AB 
    *  40    0.001103  (   14,    7)  2AB 5AX 6AA 
    *  41    0.001103  (   13,    4)  2AB 4AX 6AA 
    *  42    0.001103  (    7,   14)  2AA 5AX 6AB 
    *  43   -0.001078  (    2,    2)  2AX 3AX 
    *  44   -0.000999  (    8,    8)  3AX 5AX 
    *  45   -0.000999  (    5,    5)  3AX 4AX 
    *  46   -0.000784  (   11,    0)  1AB 2AX 6AA 
    *  47   -0.000784  (    0,   11)  1AA 2AX 6AB 
    *  48   -0.000715  (   10,   11)  1AA 2AB 6AX 
    *  49   -0.000715  (   11,   10)  1AB 2AA 6AX 
    *  50   -0.000698  (   10,    2)  1AA 2AB 3AB 6AA 
    *  51   -0.000698  (    2,   10)  1AB 2AA 3AA 6AB 
    *  52   -0.000353  (   12,   12)  3AX 6AX 
    *  53    0.000222  (    5,   13)  3AA 4AX 6AB 
    *  54    0.000222  (   14,    8)  3AB 5AX 6AA 
    *  55    0.000222  (   13,    5)  3AB 4AX 6AA 
    *  56    0.000222  (    8,   14)  3AA 5AX 6AB 
    *  57    0.000156  (    8,    7)  2AB 3AA 5AX 
    *  58    0.000156  (    7,    8)  2AA 3AB 5AX 
    *  59    0.000156  (    4,    5)  2AA 3AB 4AX 
    *  60    0.000156  (    5,    4)  2AB 3AA 4AX 
[...]
Transition Multipole Moments:

 ------------------------------------------------------------------------------------
     Multipole            Electronic (a.u.)      Nuclear  (a.u.)        Total (a.u.)
 ------------------------------------------------------------------------------------

 L = 1.  Multiply by 2.5417464519 to convert [e a0] to [Debye]
 Dipole X            :         -0.0000000            0.0000000           -0.0000000
 Dipole Y            :         -0.0000000            0.0000000           -0.0000000
 Dipole Z            :         -0.0000000            0.0000000           -0.0000000
 Magnitude           :                                                    0.0000000

 ------------------------------------------------------------------------------------

Properties computed using the CI ROOT 0 -> ROOT 206 density matrix


Transition Multipole Moments:

 ------------------------------------------------------------------------------------
     Multipole            Electronic (a.u.)      Nuclear  (a.u.)        Total (a.u.)
 ------------------------------------------------------------------------------------

 L = 1.  Multiply by 2.5417464519 to convert [e a0] to [Debye]
 Dipole X            :         -0.0000103            0.0000000           -0.0000103
 Dipole Y            :          0.0000104            0.0000000            0.0000104
 Dipole Z            :          0.0000000            0.0000000            0.0000000
 Magnitude           :                                                    0.0000146

 ------------------------------------------------------------------------------------

Properties computed using the CI ROOT 0 -> ROOT 207 density matrix


Transition Multipole Moments:

 ------------------------------------------------------------------------------------
     Multipole            Electronic (a.u.)      Nuclear  (a.u.)        Total (a.u.)
 ------------------------------------------------------------------------------------

 L = 1.  Multiply by 2.5417464519 to convert [e a0] to [Debye]
 Dipole X            :          0.0000104            0.0000000            0.0000104
 Dipole Y            :          0.0000103            0.0000000            0.0000103
 Dipole Z            :          0.0000000            0.0000000            0.0000000
 Magnitude           :                                                    0.0000146

 ------------------------------------------------------------------------------------

Properties computed using the CI ROOT 0 -> ROOT 208 density matrix


Transition Multipole Moments:

 ------------------------------------------------------------------------------------
     Multipole            Electronic (a.u.)      Nuclear  (a.u.)        Total (a.u.)
 ------------------------------------------------------------------------------------

 L = 1.  Multiply by 2.5417464519 to convert [e a0] to [Debye]
 Dipole X            :          0.0000000            0.0000000            0.0000000
 Dipole Y            :         -0.0000000            0.0000000           -0.0000000
 Dipole Z            :         -0.0000419            0.0000000           -0.0000419
 Magnitude           :                                                    0.0000419

 ------------------------------------------------------------------------------------

Properties computed using the CI ROOT 0 -> ROOT 209 density matrix


Transition Multipole Moments:

 ------------------------------------------------------------------------------------
     Multipole            Electronic (a.u.)      Nuclear  (a.u.)        Total (a.u.)
 ------------------------------------------------------------------------------------

 L = 1.  Multiply by 2.5417464519 to convert [e a0] to [Debye]
 Dipole X            :          0.0000000            0.0000000            0.0000000
 Dipole Y            :          0.0000000            0.0000000            0.0000000
 Dipole Z            :          0.0001900            0.0000000            0.0001900
 Magnitude           :                                                    0.0001900

 ------------------------------------------------------------------------------------

Properties computed using the CI ROOT 0 -> ROOT 210 density matrix


Transition Multipole Moments:

 ------------------------------------------------------------------------------------
     Multipole            Electronic (a.u.)      Nuclear  (a.u.)        Total (a.u.)
 ------------------------------------------------------------------------------------

 L = 1.  Multiply by 2.5417464519 to convert [e a0] to [Debye]
 Dipole X            :         -0.0000000            0.0000000           -0.0000000
 Dipole Y            :          0.0000000            0.0000000            0.0000000
 Dipole Z            :         -0.0007398            0.0000000           -0.0007398
 Magnitude           :                                                    0.0007398

 ------------------------------------------------------------------------------------

Properties computed using the CI ROOT 0 -> ROOT 211 density matrix


Transition Multipole Moments:

 ------------------------------------------------------------------------------------
     Multipole            Electronic (a.u.)      Nuclear  (a.u.)        Total (a.u.)
 ------------------------------------------------------------------------------------

 L = 1.  Multiply by 2.5417464519 to convert [e a0] to [Debye]
 Dipole X            :         -0.0002114            0.0000000           -0.0002114
 Dipole Y            :          0.0000609            0.0000000            0.0000609
 Dipole Z            :          0.0000000            0.0000000            0.0000000
 Magnitude           :                                                    0.0002200

 ------------------------------------------------------------------------------------

Properties computed using the CI ROOT 0 -> ROOT 212 density matrix


Transition Multipole Moments:

 ------------------------------------------------------------------------------------
     Multipole            Electronic (a.u.)      Nuclear  (a.u.)        Total (a.u.)
 ------------------------------------------------------------------------------------

 L = 1.  Multiply by 2.5417464519 to convert [e a0] to [Debye]
 Dipole X            :          0.0000609            0.0000000            0.0000609
 Dipole Y            :          0.0002114            0.0000000            0.0002114
 Dipole Z            :         -0.0000000            0.0000000           -0.0000000
 Magnitude           :                                                    0.0002200

 ------------------------------------------------------------------------------------

Properties computed using the CI ROOT 0 -> ROOT 213 density matrix


Transition Multipole Moments:

 ------------------------------------------------------------------------------------
     Multipole            Electronic (a.u.)      Nuclear  (a.u.)        Total (a.u.)
 ------------------------------------------------------------------------------------

 L = 1.  Multiply by 2.5417464519 to convert [e a0] to [Debye]
 Dipole X            :         -0.0000852            0.0000000           -0.0000852
 Dipole Y            :          0.0001709            0.0000000            0.0001709
 Dipole Z            :          0.0000000            0.0000000            0.0000000
 Magnitude           :                                                    0.0001910

 ------------------------------------------------------------------------------------

Properties computed using the CI ROOT 0 -> ROOT 214 density matrix


Transition Multipole Moments:

 ------------------------------------------------------------------------------------
     Multipole            Electronic (a.u.)      Nuclear  (a.u.)        Total (a.u.)
 ------------------------------------------------------------------------------------

 L = 1.  Multiply by 2.5417464519 to convert [e a0] to [Debye]
 Dipole X            :          0.0001709            0.0000000            0.0001709
 Dipole Y            :          0.0000852            0.0000000            0.0000852
 Dipole Z            :          0.0000000            0.0000000            0.0000000
 Magnitude           :                                                    0.0001910

 ------------------------------------------------------------------------------------

Properties computed using the CI ROOT 0 -> ROOT 215 density matrix


Transition Multipole Moments:

 ------------------------------------------------------------------------------------
     Multipole            Electronic (a.u.)      Nuclear  (a.u.)        Total (a.u.)
 ------------------------------------------------------------------------------------

 L = 1.  Multiply by 2.5417464519 to convert [e a0] to [Debye]
 Dipole X            :         -0.0000000            0.0000000           -0.0000000
 Dipole Y            :          0.0000000            0.0000000            0.0000000
 Dipole Z            :          0.0000473            0.0000000            0.0000473
 Magnitude           :                                                    0.0000473

 ------------------------------------------------------------------------------------

Properties computed using the CI ROOT 0 -> ROOT 216 density matrix


Transition Multipole Moments:

 ------------------------------------------------------------------------------------
     Multipole            Electronic (a.u.)      Nuclear  (a.u.)        Total (a.u.)
 ------------------------------------------------------------------------------------

 L = 1.  Multiply by 2.5417464519 to convert [e a0] to [Debye]
 Dipole X            :         -0.0005682            0.0000000           -0.0005682
 Dipole Y            :         -0.0002086            0.0000000           -0.0002086
 Dipole Z            :          0.0000000            0.0000000            0.0000000
 Magnitude           :                                                    0.0006053

 ------------------------------------------------------------------------------------

Properties computed using the CI ROOT 0 -> ROOT 217 density matrix


Transition Multipole Moments:

 ------------------------------------------------------------------------------------
     Multipole            Electronic (a.u.)      Nuclear  (a.u.)        Total (a.u.)
 ------------------------------------------------------------------------------------

 L = 1.  Multiply by 2.5417464519 to convert [e a0] to [Debye]
 Dipole X            :         -0.0002086            0.0000000           -0.0002086
 Dipole Y            :          0.0005682            0.0000000            0.0005682
 Dipole Z            :         -0.0000000            0.0000000           -0.0000000
 Magnitude           :                                                    0.0006053

 ------------------------------------------------------------------------------------

Properties computed using the CI ROOT 0 -> ROOT 218 density matrix


Transition Multipole Moments:

 ------------------------------------------------------------------------------------
     Multipole            Electronic (a.u.)      Nuclear  (a.u.)        Total (a.u.)
 ------------------------------------------------------------------------------------

 L = 1.  Multiply by 2.5417464519 to convert [e a0] to [Debye]
 Dipole X            :         -0.0000000            0.0000000           -0.0000000
 Dipole Y            :          0.0000000            0.0000000            0.0000000
 Dipole Z            :          0.0000000            0.0000000            0.0000000
 Magnitude           :                                                    0.0000000

 ------------------------------------------------------------------------------------

Properties computed using the CI ROOT 0 -> ROOT 219 density matrix


Transition Multipole Moments:

 ------------------------------------------------------------------------------------
     Multipole            Electronic (a.u.)      Nuclear  (a.u.)        Total (a.u.)
 ------------------------------------------------------------------------------------

 L = 1.  Multiply by 2.5417464519 to convert [e a0] to [Debye]
 Dipole X            :         -0.0001042            0.0000000           -0.0001042
 Dipole Y            :          0.0000695            0.0000000            0.0000695
 Dipole Z            :         -0.0000000            0.0000000           -0.0000000
 Magnitude           :                                                    0.0001253

 ------------------------------------------------------------------------------------

Properties computed using the CI ROOT 0 -> ROOT 220 density matrix


Transition Multipole Moments:

 ------------------------------------------------------------------------------------
     Multipole            Electronic (a.u.)      Nuclear  (a.u.)        Total (a.u.)
 ------------------------------------------------------------------------------------

 L = 1.  Multiply by 2.5417464519 to convert [e a0] to [Debye]
 Dipole X            :         -0.0000695            0.0000000           -0.0000695
 Dipole Y            :         -0.0001042            0.0000000           -0.0001042
 Dipole Z            :          0.0000000            0.0000000            0.0000000
 Magnitude           :                                                    0.0001253

 ------------------------------------------------------------------------------------

Properties computed using the CI ROOT 0 -> ROOT 221 density matrix


Transition Multipole Moments:

 ------------------------------------------------------------------------------------
     Multipole            Electronic (a.u.)      Nuclear  (a.u.)        Total (a.u.)
 ------------------------------------------------------------------------------------

 L = 1.  Multiply by 2.5417464519 to convert [e a0] to [Debye]
 Dipole X            :          0.0000000            0.0000000            0.0000000
 Dipole Y            :         -0.0000000            0.0000000           -0.0000000
 Dipole Z            :          0.0000336            0.0000000            0.0000336
 Magnitude           :                                                    0.0000336

 ------------------------------------------------------------------------------------

Properties computed using the CI ROOT 0 -> ROOT 222 density matrix


Transition Multipole Moments:

 ------------------------------------------------------------------------------------
     Multipole            Electronic (a.u.)      Nuclear  (a.u.)        Total (a.u.)
 ------------------------------------------------------------------------------------

 L = 1.  Multiply by 2.5417464519 to convert [e a0] to [Debye]
 Dipole X            :          0.0000000            0.0000000            0.0000000
 Dipole Y            :         -0.0000000            0.0000000           -0.0000000
 Dipole Z            :         -0.0000000            0.0000000           -0.0000000
 Magnitude           :                                                    0.0000000

 ------------------------------------------------------------------------------------

Properties computed using the CI ROOT 0 -> ROOT 223 density matrix


Transition Multipole Moments:

 ------------------------------------------------------------------------------------
     Multipole            Electronic (a.u.)      Nuclear  (a.u.)        Total (a.u.)
 ------------------------------------------------------------------------------------

 L = 1.  Multiply by 2.5417464519 to convert [e a0] to [Debye]
 Dipole X            :          0.0000000            0.0000000            0.0000000
 Dipole Y            :          0.0000000            0.0000000            0.0000000
 Dipole Z            :         -0.0000000            0.0000000           -0.0000000
 Magnitude           :                                                    0.0000000

 ------------------------------------------------------------------------------------

Properties computed using the CI ROOT 0 -> ROOT 224 density matrix


Transition Multipole Moments:

 ------------------------------------------------------------------------------------
     Multipole            Electronic (a.u.)      Nuclear  (a.u.)        Total (a.u.)
 ------------------------------------------------------------------------------------

 L = 1.  Multiply by 2.5417464519 to convert [e a0] to [Debye]
 Dipole X            :          0.0000000            0.0000000            0.0000000
 Dipole Y            :          0.0000000            0.0000000            0.0000000
 Dipole Z            :          0.0000465            0.0000000            0.0000465
 Magnitude           :                                                    0.0000465

 ------------------------------------------------------------------------------------
  ## AO Mux (Symmetry 0) ##
  Irrep: 1 Size: 6 x 6

                 1                   2                   3                   4                   5

    1     0.00000000000000     0.00000000000000     0.00000000000000     0.00000000000000    -0.34726358319414
    2     0.00000000000000     0.00000000000000     0.00000000000000     0.00000000000000    -0.14723997517578
    3     0.00000000000000     0.00000000000000     0.00000000000000     0.00000000000000    -1.80329831952847
    4     0.00000000000000     0.00000000000000     0.00000000000000     0.00000000000000     0.00000000000000
    5    -0.34726358319414    -0.14723997517578    -1.80329831952847     0.00000000000000     0.00000000000000
    6     0.00000000000000     0.00000000000000     0.00000000000000     0.00000000000000     0.00000000000000

                 6

    1     0.00000000000000
    2     0.00000000000000
    3     0.00000000000000
    4     0.00000000000000
    5     0.00000000000000
    6     0.00000000000000



  ## AO Muy (Symmetry 0) ##
  Irrep: 1 Size: 6 x 6

                 1                   2                   3                   4                   5

    1     0.00000000000000     0.00000000000000     0.00000000000000     0.00000000000000     0.00000000000000
    2     0.00000000000000     0.00000000000000     0.00000000000000     0.00000000000000     0.00000000000000
    3     0.00000000000000     0.00000000000000     0.00000000000000     0.00000000000000     0.00000000000000
    4     0.00000000000000     0.00000000000000     0.00000000000000     0.00000000000000     0.00000000000000
    5     0.00000000000000     0.00000000000000     0.00000000000000     0.00000000000000     0.00000000000000
    6    -0.34726358319414    -0.14723997517578    -1.80329831952847     0.00000000000000     0.00000000000000

                 6

    1    -0.34726358319414
    2    -0.14723997517578
    3    -1.80329831952847
    4     0.00000000000000
    5     0.00000000000000
    6     0.00000000000000



  ## AO Muz (Symmetry 0) ##
  Irrep: 1 Size: 6 x 6

                 1                   2                   3                   4                   5

    1     1.44564048597524    -0.06986589445209     0.34160114354748    -0.66714289235088     0.00000000000000
    2    -0.06986589445209    -1.44564048597524    -0.34859690560396    -0.14723997517578     0.00000000000000
    3     0.34160114354748    -0.34859690560396    -1.44564048597524    -1.80329831952847     0.00000000000000
    4    -0.66714289235088    -0.14723997517578    -1.80329831952847    -1.44564048597524     0.00000000000000
    5     0.00000000000000     0.00000000000000     0.00000000000000     0.00000000000000    -1.44564048597524
    6     0.00000000000000     0.00000000000000     0.00000000000000     0.00000000000000     0.00000000000000

                 6

    1     0.00000000000000
    2     0.00000000000000
    3     0.00000000000000
    4     0.00000000000000
    5     0.00000000000000
    6    -1.44564048597524




    Psi4 stopped on: Sunday, 14 September 2025 12:24PM
    Psi4 wall time for execution: 0:00:02.55

*** Psi4 exiting successfully. Buy a developer a beer!
