
    -----------------------------------------------------------------------
          Psi4: An Open-Source Ab Initio Electronic Structure Package
                               Psi4 1.10 release

                         Git: Rev {} zzzzzzz 


    D. G. A. Smith, L. A. Burns, A. C. Simmonett, R. M. Parrish,
    M. C. Schieber, R. Galvelis, P. Kraus, H. Kruse, R. Di Remigio,
    A. Alenaizan, A. M. James, S. Lehtola, J. P. Misiewicz, M. Scheurer,
    R. A. Shaw, J. B. Schriber, Y. Xie, Z. L. Glick, D. A. Sirianni,
    J. S. O'Brien, J. M. Waldrop, A. Kumar, E. G. Hohenstein,
    B. P. Pritchard, B. R. Brooks, H. F. Schaefer III, A. Yu. Sokolov,
    K. Patkowski, A. E. DePrince III, U. Bozkaya, R. A. King,
    F. A. Evangelista, J. M. Turney, T. D. Crawford, C. D. Sherrill,
    J. Chem. Phys. 152(18) 184108 (2020). https://doi.org/10.1063/5.0006002

                            Additional Code Authors
    E. T. Seidl, C. L. Janssen, E. F. Valeev, M. L. Leininger,
    J. F. Gonthier, R. M. Richard, H. R. McAlexander, M. Saitow, X. Wang,
    P. Verma, M. H. Lechner, A. Jiang, S. Behnle, A. G. Heide,
    M. F. Herbst, D. L. Poole, T. Győri, E. C. Mitchell, J. P. Pederson,
    and A. M. Wallace

             Previous Authors, Complete List of Code Contributors,
                       and Citations for Specific Modules
    https://github.com/psi4/psi4/blob/master/codemeta.json
    https://github.com/psi4/psi4/graphs/contributors
    https://psicode.org/psi4manual/master/introduction.html#citing-psifour

    -----------------------------------------------------------------------


    Psi4 started on: Saturday, 29 November 2025 02:15PM

    Process ID: 818721
    Host:       rclogin03.cluster
    PSIDATADIR: /home/aelkamshishy/.conda/envs/p4env/share/psi4
    Memory:     500.0 MiB
    Threads:    1
    Addons:     a̶d̶c̶c̶, a̶m̶b̶i̶t̶, b̶s̶e̶, c̶c̶t̶3̶, c̶f̶o̶u̶r̶, c̶h̶e̶m̶p̶s̶2̶, c̶p̶p̶e̶, d̶d̶x̶,
                d̶f̶t̶d̶3̶, d̶f̶t̶d̶4̶, dkh, ecpint, einsums, f̶o̶r̶t̶e̶, g̶a̶u̶x̶c̶, g̶c̶p̶,
                g̶d̶m̶a̶, g̶e̶o̶m̶e̶t̶r̶i̶c̶, g̶p̶u̶_̶d̶f̶c̶c̶, i̶n̶t̶e̶g̶r̶a̶t̶o̶r̶x̶x̶,
                i̶p̶i̶, l̶i̶b̶e̶f̶p̶, m̶d̶i̶, m̶p̶2̶d̶, m̶r̶c̶c̶, ooo,
                o̶p̶e̶n̶f̶e̶r̶m̶i̶o̶n̶p̶s̶i̶4̶, pcmsolver, p̶s̶i̶4̶f̶o̶c̶k̶c̶i̶, p̶s̶i̶x̶a̶s̶,
                r̶e̶s̶p̶, s̶i̶m̶i̶n̶t̶, s̶n̶s̶m̶p̶2̶, v̶2̶r̶d̶m̶_̶c̶a̶s̶s̶c̶f̶

  ==> Input File <==

--------------------------------------------------------------------------
memory 1 gb

molecule h2 {
H  0.       0.      -0.37
H  0.       0.       0.37
symmetry c1
no_com
no_reorient
}

set {
    reference rhf
    basis 6-31g**
    ms0 false
    fci true
    print_MOs true
    diag_method rsp
    num_roots 100
    print 2
    dipmom true
    opdm true
    tdm true
}

thisenergy, ciwfn = prop('detci', properties=['DIPOLE', 'TRANSITION_DIPOLE'], return_wfn=True)

mints = MintsHelper(ciwfn.basisset())

AOdip = mints.ao_dipole()
AOdip[0].print_out()
AOdip[1].print_out()
AOdip[2].print_out()

# MO coefficients
C = ciwfn.Ca().to_array()

# overlap matrix
S = ciwfn.S().to_array()

print("Overlap test:")
n = S.shape[0]
print(np.mean(np.abs(C.T @ S @ C - np.eye(n))))

# z-direction AO dipole moment matrix
AOdipmat = AOdip[2].to_array()
MOdipmat = C.T @ AOdipmat @ C

# set CI size
cisize = 100

# grab the Hamiltonian
test = psi4.core.variables()
ham = []
for j in range(cisize):
    ham.append( test['CI ROOT '+str(j)+' TOTAL ENERGY'] )
ham = np.array(ham)

print("Diagonalized Hamiltonian:")
print(ham)

# initialize CI dipole moment matrix in z direction
CIdimatzMO = np.zeros((cisize,cisize))
CIdimatzAO = np.zeros((cisize,cisize))
# initialize B tensor
Bten = np.zeros((cisize, cisize, n, n))
for i in range(cisize):
    for j in range(cisize):
        ciop_dm = ciwfn.get_opdm(i,j,'SUM',True)
        # store this in Bten
        Bten[i,j,:,:] = ciop_dm.to_array()
        # density matrix: change basis from MO to AO
        dmAO = C @ ciop_dm.to_array() @ C.T
        # compute this particular density matrix element
        CIdimatzMO[i, j] = np.trace( ciop_dm.to_array() @ MOdipmat )
        CIdimatzAO[i, j] = np.trace( dmAO @ AOdipmat )

print("Difference between CI basis dipole moment matrices computed via AO vs MO:")
print(np.mean(np.abs(CIdimatzMO - CIdimatzAO)))

#CIdimatfile = np.load('../logfiles/casscf24_s15_h2_6-31gss_CI_dimat.npz')
#print("Difference between new and old CI basis dipole moment matrices:")
#print(np.mean(np.abs(CIdimatfile - CIdimatzMO)))

#print("Difference between **diagonals** of new and old CI basis dipole moment matrices:")
#print(np.mean(np.abs(np.diag(CIdimatfile - CIdimatzMO))))

# reshape OPDMs into B tensor

np.savez('./fci_h2_6-31gss.npz',C=C,S=S,AOdipmat=AOdipmat,CIdimatz=CIdimatzMO,Bten=Bten,ham=ham)

# for debugging purposes:
# Bmat = Bten.reshape((cisize**2, n**2))
# Bmat[np.abs(Bmat) < 1e-14] = 0.0
# print(Bmat)




--------------------------------------------------------------------------

  Memory set to 953.674 MiB by Python driver.
   => Libint2 <=

    Primary   basis highest AM E, G, H:  6, 6, 3
    Auxiliary basis highest AM E, G, H:  7, 7, 4
    Onebody   basis highest AM E, G, H:  -, -, -
    Solid Harmonics ordering:            Gaussian

*** tstart() called on rclogin03.cluster
*** at Sat Nov 29 14:15:39 2025

   => Loading Basis Set <=

    Name: 6-31G**
    Role: ORBITAL
    Keyword: BASIS
    atoms 1-2 entry H          line    44 file /home/aelkamshishy/.conda/envs/p4env/share/psi4/basis/6-31gss.gbs 


         ---------------------------------------------------------
                                   SCF
               by Justin Turney, Rob Parrish, Andy Simmonett
                          and Daniel G. A. Smith
                              RHF Reference
                        1 Threads,    953 MiB Core
         ---------------------------------------------------------

  ==> Geometry <==

    Molecular point group: c1
    Full point group: D_inf_h

    Geometry (in Angstrom), charge = 0, multiplicity = 1:

       Center              X                  Y                   Z               Mass       
    ------------   -----------------  -----------------  -----------------  -----------------
         H            0.000000000000     0.000000000000    -0.370000000000     1.007825032230
         H            0.000000000000     0.000000000000     0.370000000000     1.007825032230

  Running in c1 symmetry.

  Rotational constants: A = ************  B =     61.09110  C =     61.09110 [cm^-1]
  Rotational constants: A = ************  B = 1831464.96157  C = 1831464.96157 [MHz]
  Nuclear repulsion =    0.715104338743243

  Charge       = 0
  Multiplicity = 1
  Electrons    = 2
  Nalpha       = 1
  Nbeta        = 1

  ==> Algorithm <==

  SCF Algorithm Type is PK.
  DIIS enabled.
  MOM disabled.
  Fractional occupation disabled.
  Guess Type is SAD.
  Energy threshold   = 1.00e-10
  Density threshold  = 1.00e-10
  Integral threshold = 1.00e-12

  ==> Primary Basis <==

  -AO BASIS SET INFORMATION:
    Name                   = 6-31G**
    Blend                  = 6-31G**
    Total number of shells = 6
    Number of primitives   = 10
    Number of AO           = 10
    Number of SO           = 10
    Maximum AM             = 1
    Spherical Harmonics    = FALSE

  -Contraction Scheme:
    Atom   Type   All Primitives // Shells:
   ------ ------ --------------------------
       1     H     4s 1p // 2s 1p 
       2     H     4s 1p // 2s 1p 

  ==> Integral Setup <==

  Using in-core PK algorithm.
   Calculation information:
      Number of atoms:                   2
      Number of AO shells:               6
      Number of primitives:             10
      Number of atomic orbitals:        10
      Number of basis functions:        10

      Integral cutoff                 1.00e-12
      Number of threads:                 1

  Performing in-core PK
  Using 3080 doubles for integral storage.
  We computed 231 shell quartets total.
  Whereas there are 231 unique shell quartets.

  ==> DiskJK: Disk-Based J/K Matrices <==

    J tasked:                  Yes
    K tasked:                  Yes
    wK tasked:                  No
    Memory [MiB]:              715
    Schwarz Cutoff:          1E-12

    OpenMP threads:              1

  Minimum eigenvalue in the overlap matrix is 9.6176147078E-02.
  Reciprocal condition number of the overlap matrix is 3.2546191140E-02.
    Using symmetric orthogonalization.

  ==> Pre-Iterations <==

  SCF Guess: Superposition of Atomic Densities via on-the-fly atomic UHF (no occupation information).

   -------------------------
    Irrep   Nso     Nmo    
   -------------------------
     A         10      10 
   -------------------------
    Total      10      10
   -------------------------

  ==> Iterations <==

                        Total Energy        Delta E     RMS |[F,P]|

   @RHF iter SAD:    -1.15337145750341   -1.15337e+00   0.00000e+00 
   @RHF iter   1:    -1.11323767224819    4.01338e-02   1.46535e-02 ADIIS/DIIS
   @RHF iter   2:    -1.13095547286801   -1.77178e-02   1.99459e-03 ADIIS/DIIS
   @RHF iter   3:    -1.13129360182126   -3.38129e-04   7.56741e-05 DIIS
   @RHF iter   4:    -1.13129385362737   -2.51806e-07   1.04243e-06 DIIS
   @RHF iter   5:    -1.13129385372018   -9.28055e-11   9.06232e-10 DIIS
   @RHF iter   6:    -1.13129385372017    2.22045e-15   3.97569e-13 DIIS
  Energy and wave function converged.


  ==> Post-Iterations <==

    Orbital Energies [Eh]
    ---------------------

    Doubly Occupied:                                                      

       1A     -0.594921  

    Virtual:                                                              

       2A      0.239537     3A      0.771177     4A      1.310551  
       5A      1.959189     6A      1.959189     7A      2.706256  
       8A      2.931140     9A      2.931140    10A      4.534656  

    Final Occupation by Irrep:
              A 
    DOCC [     1 ]
    NA   [     1 ]
    NB   [     1 ]

  @RHF Final Energy:    -1.13129385372017

   => Energetics <=

    Nuclear Repulsion Energy =              0.7151043387432432
    One-Electron Energy =                  -2.5029535538068615
    Two-Electron Energy =                   0.6565553613434438
    Total Energy =                         -1.1312938537201744

Computation Completed


Properties will be evaluated at   0.000000,   0.000000,   0.000000 [a0]

Properties computed using the SCF density matrix


 Multipole Moments:

 ------------------------------------------------------------------------------------
     Multipole            Electronic (a.u.)      Nuclear  (a.u.)        Total (a.u.)
 ------------------------------------------------------------------------------------

 L = 1.  Multiply by 2.5417464519 to convert [e a0] to [Debye]
 Dipole X            :          0.0000000            0.0000000            0.0000000
 Dipole Y            :          0.0000000            0.0000000            0.0000000
 Dipole Z            :         -0.0000000            0.0000000           -0.0000000
 Magnitude           :                                                    0.0000000

 ------------------------------------------------------------------------------------

  ==> Molecular Orbitals <==

                            1            2            3            4            5

 1    H1 s          0.3183822    0.1202760    0.7458109    0.8813441    0.0000000
 2    H1 s          0.2751990    1.7206303   -0.6773926   -1.3930340   -0.0000000
 3    H1 px        -0.0000000    0.0000000    0.0000000    0.0000000    0.0639155
 4    H1 py        -0.0000000   -0.0000000   -0.0000000   -0.0000000    0.6072386
 5    H1 pz         0.0182588    0.0023993    0.0355950   -0.2823517   -0.0000000
 6    H2 s          0.3183822   -0.1202760    0.7458109   -0.8813441   -0.0000000
 7    H2 s          0.2751990   -1.7206303   -0.6773926    1.3930340    0.0000000
 8    H2 px         0.0000000   -0.0000000    0.0000000    0.0000000    0.0639155
 9    H2 py        -0.0000000   -0.0000000   -0.0000000   -0.0000000    0.6072386
 10   H2 pz        -0.0182588    0.0023993   -0.0355950   -0.2823517   -0.0000000

            Ene    -0.5949214    0.2395370    0.7711766    1.3105512    1.9591887
            Sym             A            A            A            A            A
            Occ             2            0            0            0            0


                            6            7            8            9           10

 1    H1 s         -0.0000000    0.3862497    0.0000000    0.0000000    1.4515775
 2    H1 s          0.0000000   -0.1866609   -0.0000000   -0.0000000    0.1613148
 3    H1 px         0.6072386   -0.0000000    0.3910808    0.7784051   -0.0000000
 4    H1 py        -0.0639155   -0.0000000    0.7784051   -0.3910808   -0.0000000
 5    H1 pz        -0.0000000   -0.6478020    0.0000000    0.0000000    1.5790169
 6    H2 s          0.0000000    0.3862497   -0.0000000   -0.0000000   -1.4515775
 7    H2 s         -0.0000000   -0.1866609   -0.0000000    0.0000000   -0.1613148
 8    H2 px         0.6072386   -0.0000000   -0.3910808   -0.7784051    0.0000000
 9    H2 py        -0.0639155    0.0000000   -0.7784051    0.3910808    0.0000000
 10   H2 pz         0.0000000    0.6478020    0.0000000   -0.0000000    1.5790169

            Ene     1.9591887    2.7062558    2.9311397    2.9311397    4.5346559
            Sym             A            A            A            A            A
            Occ             0            0            0            0            0



*** tstop() called on rclogin03.cluster at Sat Nov 29 14:15:39 2025
Module time:
	user time   =       0.26 seconds =       0.00 minutes
	system time =       0.08 seconds =       0.00 minutes
	total time  =          0 seconds =       0.00 minutes
Total time:
	user time   =       0.26 seconds =       0.00 minutes
	system time =       0.08 seconds =       0.00 minutes
	total time  =          0 seconds =       0.00 minutes
 MINTS: Wrapper to libmints.
   by Justin Turney

   Calculation information:
      Number of threads:                 1
      Number of atoms:                   2
      Number of AO shells:               6
      Number of SO shells:               6
      Number of primitives:             10
      Number of atomic orbitals:        10
      Number of basis functions:        10

      Number of irreps:                  1
      Integral cutoff                 1.00e-12
      Number of functions per irrep: [  10 ]

 OEINTS: Overlap, kinetic, potential, dipole, and quadrupole integrals
         stored in file 35.

      Computing two-electron integrals...done
      Computed 512 non-zero two-electron integrals.
        Stored in file 33.


         ---------------------------------------------------------
                          Configuration Interaction
                            (a 'D E T C I' module)

                 C. David Sherrill, Daniel G. A. Smith, and
                              Matt L. Leininger
         ---------------------------------------------------------

DAVIDSON update not available for OLSEN or MITRUSH iterators

   ==> Parameters <==

    EX LEVEL       =        2      H0 BLOCKSIZE  =     1000
    VAL EX LEVEL   =        0      H0 GUESS SIZE =     1000
    H0COUPLINGSIZE =        0      H0 COUPLING   =       NO
    MAXITER        =       24      NUM PRINT     =       20
    NUM ROOTS      =      100      ICORE         =        1
    PRINT LVL      =        2      FCI           =      YES
    R CONV         = 1.00e-04      MIXED         =      YES
    E CONV         = 1.00e-08      MIXED4        =      YES
    R4S            =       NO      REPL OTF      =       NO
    DIAG METHOD    =      RSP      FOLLOW ROOT   =        0
    PRECONDITIONER = DAVIDSON      UPDATE        = OLSEN
    S              =   0.0000      Ms0           =       NO
    GUESS VECTOR   =  H0BLOCK      OPENTYPE      =     NONE
    COLLAPSE SIZE  =        1      HD AVG        = EVANGELISTI
    MAX NUM VECS   =        0      REF SYM       =     AUTO
    IOPEN        =       NO

    EX ALLOW       =  1  1 
    STATE AVERAGE  =  0(1.00) 

   ==> CI Orbital and Space information <==

   ------------------------------------
               Space    Total     A
   ------------------------------------
                 Nso       10    10
                 Nmo       10    10
               Ndocc        1     1
               Nsocc        0     0
   ------------------------------------
              CI Spaces
   ------------------------------------
        Dropped DOCC        0     0
              Active       10    10
        Dropped UOCC        0     0
   ------------------------------------

   ==> Setting up CI strings <==

    There are 10 alpha and 10 beta strings
    The CI space requires 100 (1.00E+02) determinants and 1 blocks
    Total H0block size (including coupling): 100

   ==> Transforming CI integrals <==

	Presorting SO-basis two-electron integrals.
	Sorting File: SO Ints (nn|nn) nbuckets = 1
	Constructing frozen core operators
	Starting first half-transformation.
	h = 0; memfree         = 124999800
	h = 0; rows_per_bucket = 55
	h = 0; rows_left       = 0
	h = 0; nbuckets        = 1
	Sorting half-transformed integrals.
	First half integral transformation complete.
	Starting second half-transformation.
	h = 0; memfree         = 124999800
	h = 0; rows_per_bucket = 55
	h = 0; rows_left       = 0
	h = 0; nbuckets        = 1
	Two-electron integral transformation complete.

   ==> Starting CI iterations <==

    Exact Diagonalization Algorithm

   ==> Energetics <==

    SCF energy =           -1.131293853720174
    Total CI energy =      -1.165155735248023

   ==> DETCI root 0 information <==

    DETCI Root 0 energy =    -1.165155735248023

   The 20 most important determinants:

    *   1   -0.992319  (    0,    0)  1AX 
    *   2    0.069456  (    1,    1)  2AX 
    *   3    0.053381  (    2,    2)  3AX 
    *   4    0.042635  (    1,    3)  2AA 4AB 
    *   5    0.042635  (    3,    1)  2AB 4AA 
    *   6    0.039860  (    3,    3)  4AX 
    *   7    0.028133  (    5,    5)  6AX 
    *   8    0.028133  (    4,    4)  5AX 
    *   9    0.012343  (    6,    6)  7AX 
    *  10   -0.011427  (    6,    2)  3AB 7AA 
    *  11   -0.011427  (    2,    6)  3AA 7AB 
    *  12   -0.008192  (    2,    0)  1AB 3AA 
    *  13   -0.008192  (    0,    2)  1AA 3AB 
    *  14    0.007707  (    8,    8)  9AX 
    *  15    0.007707  (    7,    7)  8AX 
    *  16    0.006380  (    9,    3)  4AB 10AA 
    *  17    0.006380  (    3,    9)  4AA 10AB 
    *  18    0.004773  (    9,    9)  10AX 
    *  19    0.003868  (    1,    9)  2AA 10AB 
    *  20    0.003868  (    9,    1)  2AB 10AA 


   ==> DETCI root 1 information <==

    DETCI Root 1 energy =    -0.763108737755780

   The 20 most important determinants:

    *   1   -0.695106  (    0,    1)  1AA 2AB 
    *   2    0.695106  (    1,    0)  1AB 2AA 
    *   3   -0.109939  (    0,    3)  1AA 4AB 
    *   4    0.109939  (    3,    0)  1AB 4AA 
    *   5   -0.066261  (    2,    1)  2AB 3AA 
    *   6    0.066261  (    1,    2)  2AA 3AB 
    *   7    0.011909  (    3,    6)  4AA 7AB 
    *   8   -0.011909  (    6,    3)  4AB 7AA 
    *   9    0.010666  (    2,    3)  3AA 4AB 
    *  10   -0.010666  (    3,    2)  3AB 4AA 
    *  11   -0.004951  (    0,    9)  1AA 10AB 
    *  12    0.004951  (    9,    0)  1AB 10AA 
    *  13    0.004760  (    4,    7)  5AA 8AB 
    *  14    0.004760  (    5,    8)  6AA 9AB 
    *  15   -0.004760  (    8,    5)  6AB 9AA 
    *  16   -0.004760  (    7,    4)  5AB 8AA 
    *  17    0.003705  (    9,    6)  7AB 10AA 
    *  18   -0.003705  (    6,    9)  7AA 10AB 
    *  19    0.001795  (    5,    7)  6AA 8AB 
    *  20   -0.001795  (    4,    8)  5AA 9AB 


   ==> DETCI root 2 information <==

    DETCI Root 2 energy =    -0.612896810052779

   The 20 most important determinants:

    *   1   -0.697551  (    1,    0)  1AB 2AA 
    *   2   -0.697551  (    0,    1)  1AA 2AB 
    *   3   -0.105403  (    1,    2)  2AA 3AB 
    *   4   -0.105403  (    2,    1)  2AB 3AA 
    *   5    0.033325  (    1,    6)  2AA 7AB 
    *   6    0.033325  (    6,    1)  2AB 7AA 
    *   7    0.022677  (    3,    2)  3AB 4AA 
    *   8    0.022677  (    2,    3)  3AA 4AB 
    *   9    0.013410  (    8,    5)  6AB 9AA 
    *  10    0.013410  (    7,    4)  5AB 8AA 
    *  11    0.013410  (    4,    7)  5AA 8AB 
    *  12    0.013410  (    5,    8)  6AA 9AB 
    *  13    0.012695  (    6,    3)  4AB 7AA 
    *  14    0.012695  (    3,    6)  4AA 7AB 
    *  15    0.008211  (    0,    3)  1AA 4AB 
    *  16    0.008211  (    3,    0)  1AB 4AA 
    *  17   -0.005058  (    8,    4)  5AB 9AA 
    *  18    0.005058  (    7,    5)  6AB 8AA 
    *  19   -0.005058  (    4,    8)  5AA 9AB 
    *  20    0.005058  (    5,    7)  6AA 8AB 


   ==> DETCI root 3 information <==

    DETCI Root 3 energy =    -0.312658433250067

   The 20 most important determinants:

    *   1   -0.705413  (    0,    2)  1AA 3AB 
    *   2    0.705413  (    2,    0)  1AB 3AA 
    *   3    0.039449  (    1,    3)  2AA 4AB 
    *   4   -0.039449  (    3,    1)  2AB 4AA 
    *   5   -0.026066  (    6,    0)  1AB 7AA 
    *   6    0.026066  (    0,    6)  1AA 7AB 
    *   7    0.011556  (    6,    2)  3AB 7AA 
    *   8   -0.011556  (    2,    6)  3AA 7AB 
    *   9    0.004052  (    1,    9)  2AA 10AB 
    *  10   -0.004052  (    9,    1)  2AB 10AA 
    *  11    0.002732  (    3,    9)  4AA 10AB 
    *  12   -0.002732  (    9,    3)  4AB 10AA 


   ==> DETCI root 4 information <==

    DETCI Root 4 energy =    -0.113291156449961

   The 20 most important determinants:

    *   1   -0.682551  (    2,    0)  1AB 3AA 
    *   2   -0.682551  (    0,    2)  1AA 3AB 
    *   3   -0.225535  (    1,    1)  2AX 
    *   4    0.088831  (    3,    3)  4AX 
    *   5   -0.074260  (    2,    2)  3AX 
    *   6    0.030669  (    3,    1)  2AB 4AA 
    *   7    0.030669  (    1,    3)  2AA 4AB 
    *   8    0.020581  (    5,    5)  6AX 
    *   9    0.020581  (    4,    4)  5AX 
    *  10    0.016570  (    6,    6)  7AX 
    *  11    0.015715  (    3,    9)  4AA 10AB 
    *  12    0.015715  (    9,    3)  4AB 10AA 
    *  13   -0.011757  (    2,    6)  3AA 7AB 
    *  14   -0.011757  (    6,    2)  3AB 7AA 
    *  15    0.007543  (    9,    9)  10AX 
    *  16    0.006489  (    9,    1)  2AB 10AA 
    *  17    0.006489  (    1,    9)  2AA 10AB 
    *  18    0.004946  (    7,    7)  8AX 
    *  19    0.004946  (    8,    8)  9AX 
    *  20   -0.002645  (    6,    0)  1AB 7AA 


   ==> DETCI root 5 information <==

    DETCI Root 5 energy =    -0.050976062264427

   The 20 most important determinants:

    *   1    0.937578  (    1,    1)  2AX 
    *   2    0.177988  (    1,    3)  2AA 4AB 
    *   3    0.177988  (    3,    1)  2AB 4AA 
    *   4   -0.143576  (    2,    0)  1AB 3AA 
    *   5   -0.143576  (    0,    2)  1AA 3AB 
    *   6    0.078997  (    0,    0)  1AX 
    *   7   -0.069419  (    2,    2)  3AX 
    *   8   -0.045909  (    0,    6)  1AA 7AB 
    *   9   -0.045909  (    6,    0)  1AB 7AA 
    *  10    0.015886  (    1,    9)  2AA 10AB 
    *  11    0.015886  (    9,    1)  2AB 10AA 
    *  12   -0.013945  (    6,    6)  7AX 
    *  13   -0.010151  (    8,    8)  9AX 
    *  14   -0.010151  (    7,    7)  8AX 
    *  15   -0.007798  (    4,    4)  5AX 
    *  16   -0.007798  (    5,    5)  6AX 
    *  17   -0.004496  (    3,    3)  4AX 
    *  18   -0.003541  (    9,    9)  10AX 
    *  19    0.002865  (    3,    9)  4AA 10AB 
    *  20    0.002865  (    9,    3)  4AB 10AA 


   ==> DETCI root 6 information <==

    DETCI Root 6 energy =     0.148389620552846

   The 20 most important determinants:

    *   1   -0.693668  (    0,    3)  1AA 4AB 
    *   2    0.693668  (    3,    0)  1AB 4AA 
    *   3   -0.107486  (    1,    0)  1AB 2AA 
    *   4    0.107486  (    0,    1)  1AA 2AB 
    *   5   -0.075168  (    2,    3)  3AA 4AB 
    *   6    0.075168  (    3,    2)  3AB 4AA 
    *   7    0.028514  (    1,    6)  2AA 7AB 
    *   8   -0.028514  (    6,    1)  2AB 7AA 
    *   9   -0.019911  (    0,    9)  1AA 10AB 
    *  10    0.019911  (    9,    0)  1AB 10AA 
    *  11    0.014829  (    2,    1)  2AB 3AA 
    *  12   -0.014829  (    1,    2)  2AA 3AB 
    *  13   -0.008706  (    6,    3)  4AB 7AA 
    *  14    0.008706  (    3,    6)  4AA 7AB 
    *  15   -0.006019  (    6,    9)  7AA 10AB 
    *  16    0.006019  (    9,    6)  7AB 10AA 
    *  17   -0.005400  (    7,    4)  5AB 8AA 
    *  18   -0.005400  (    8,    5)  6AB 9AA 
    *  19    0.005400  (    4,    7)  5AA 8AB 
    *  20    0.005400  (    5,    8)  6AA 9AB 


   ==> DETCI root 7 information <==

    DETCI Root 7 energy =     0.225821259766218

   The 20 most important determinants:

    *   1    0.525071  (    3,    0)  1AB 4AA 
    *   2    0.525071  (    0,    3)  1AA 4AB 
    *   3   -0.455726  (    1,    2)  2AA 3AB 
    *   4   -0.455726  (    2,    1)  2AB 3AA 
    *   5   -0.101591  (    3,    2)  3AB 4AA 
    *   6   -0.101591  (    2,    3)  3AA 4AB 
    *   7    0.070175  (    1,    0)  1AB 2AA 
    *   8    0.070175  (    0,    1)  1AA 2AB 
    *   9   -0.019274  (    6,    3)  4AB 7AA 
    *  10   -0.019274  (    3,    6)  4AA 7AB 
    *  11   -0.014436  (    9,    2)  3AB 10AA 
    *  12   -0.014436  (    2,    9)  3AA 10AB 
    *  13   -0.014212  (    8,    5)  6AB 9AA 
    *  14   -0.014212  (    4,    7)  5AA 8AB 
    *  15   -0.014212  (    5,    8)  6AA 9AB 
    *  16   -0.014212  (    7,    4)  5AB 8AA 
    *  17    0.013342  (    9,    0)  1AB 10AA 
    *  18    0.013342  (    0,    9)  1AA 10AB 
    *  19   -0.010843  (    6,    1)  2AB 7AA 
    *  20   -0.010843  (    1,    6)  2AA 7AB 


   ==> DETCI root 8 information <==

    DETCI Root 8 energy =     0.304812696548478

   The 20 most important determinants:

    *   1    0.695986  (    2,    1)  2AB 3AA 
    *   2   -0.695986  (    1,    2)  2AA 3AB 
    *   3    0.098823  (    2,    3)  3AA 4AB 
    *   4   -0.098823  (    3,    2)  3AB 4AA 
    *   5   -0.064488  (    0,    1)  1AA 2AB 
    *   6    0.064488  (    1,    0)  1AB 2AA 
    *   7   -0.037676  (    6,    1)  2AB 7AA 
    *   8    0.037676  (    1,    6)  2AA 7AB 
    *   9   -0.013515  (    3,    6)  4AA 7AB 
    *  10    0.013515  (    6,    3)  4AB 7AA 
    *  11    0.005385  (    2,    9)  3AA 10AB 
    *  12   -0.005385  (    9,    2)  3AB 10AA 
    *  13    0.004533  (    3,    0)  1AB 4AA 
    *  14   -0.004533  (    0,    3)  1AA 4AB 
    *  15    0.004352  (    6,    9)  7AA 10AB 
    *  16   -0.004352  (    9,    6)  7AB 10AA 
    *  17    0.001816  (    0,    9)  1AA 10AB 
    *  18   -0.001816  (    9,    0)  1AB 10AA 
    *  19   -0.001525  (    4,    7)  5AA 8AB 
    *  20   -0.001525  (    5,    8)  6AA 9AB 


   ==> DETCI root 9 information <==

    DETCI Root 9 energy =     0.521972882137234

   The 20 most important determinants:

    *   1    0.521443  (    1,    2)  2AA 3AB 
    *   2    0.521443  (    2,    1)  2AB 3AA 
    *   3    0.465474  (    0,    3)  1AA 4AB 
    *   4    0.465474  (    3,    0)  1AB 4AA 
    *   5   -0.076050  (    1,    0)  1AB 2AA 
    *   6   -0.076050  (    0,    1)  1AA 2AB 
    *   7   -0.045470  (    1,    6)  2AA 7AB 
    *   8   -0.045470  (    6,    1)  2AB 7AA 
    *   9   -0.037252  (    3,    6)  4AA 7AB 
    *  10   -0.037252  (    6,    3)  4AB 7AA 
    *  11    0.033138  (    3,    2)  3AB 4AA 
    *  12    0.033138  (    2,    3)  3AA 4AB 
    *  13   -0.017989  (    5,    8)  6AA 9AB 
    *  14   -0.017989  (    4,    7)  5AA 8AB 
    *  15   -0.017989  (    7,    4)  5AB 8AA 
    *  16   -0.017989  (    8,    5)  6AB 9AA 
    *  17   -0.016259  (    9,    2)  3AB 10AA 
    *  18   -0.016259  (    2,    9)  3AA 10AB 
    *  19   -0.008848  (    9,    0)  1AB 10AA 
    *  20   -0.008848  (    0,    9)  1AA 10AB 


   ==> DETCI root 10 information <==

    DETCI Root 10 energy =     0.705472482860894

   The 20 most important determinants:

    *   1   -0.704587  (    1,    3)  2AA 4AB 
    *   2    0.704587  (    3,    1)  2AB 4AA 
    *   3    0.038472  (    2,    0)  1AB 3AA 
    *   4   -0.038472  (    0,    2)  1AA 3AB 
    *   5    0.033110  (    9,    1)  2AB 10AA 
    *   6   -0.033110  (    1,    9)  2AA 10AB 
    *   7    0.023572  (    6,    2)  3AB 7AA 
    *   8   -0.023572  (    2,    6)  3AA 7AB 
    *   9   -0.019070  (    6,    0)  1AB 7AA 
    *  10    0.019070  (    0,    6)  1AA 7AB 
    *  11   -0.007819  (    9,    3)  4AB 10AA 
    *  12    0.007819  (    3,    9)  4AA 10AB 


   ==> DETCI root 11 information <==

    DETCI Root 11 energy =     0.711562637957153

   The 20 most important determinants:

    *   1    0.552348  (    0,    4)  1AA 5AB 
    *   2   -0.552348  (    4,    0)  1AB 5AA 
    *   3   -0.438906  (    0,    5)  1AA 6AB 
    *   4    0.438906  (    5,    0)  1AB 6AA 
    *   5    0.028028  (    1,    8)  2AA 9AB 
    *   6   -0.028028  (    8,    1)  2AB 9AA 
    *   7    0.021883  (    3,    8)  4AA 9AB 
    *   8   -0.021883  (    8,    3)  4AB 9AA 
    *   9   -0.018198  (    4,    2)  3AB 5AA 
    *  10    0.018198  (    2,    4)  3AA 5AB 
    *  11   -0.016749  (    1,    7)  2AA 8AB 
    *  12    0.016749  (    7,    1)  2AB 8AA 
    *  13   -0.014460  (    2,    5)  3AA 6AB 
    *  14    0.014460  (    5,    2)  3AB 6AA 
    *  15    0.013077  (    7,    3)  4AB 8AA 
    *  16   -0.013077  (    3,    7)  4AA 8AB 
    *  17    0.002668  (    9,    8)  9AB 10AA 
    *  18   -0.002668  (    8,    9)  9AA 10AB 
    *  19    0.002099  (    4,    6)  5AA 7AB 
    *  20   -0.002099  (    6,    4)  5AB 7AA 


   ==> DETCI root 12 information <==

    DETCI Root 12 energy =     0.711562637957156

   The 20 most important determinants:

    *   1   -0.552348  (    0,    5)  1AA 6AB 
    *   2    0.552348  (    5,    0)  1AB 6AA 
    *   3    0.438906  (    4,    0)  1AB 5AA 
    *   4   -0.438906  (    0,    4)  1AA 5AB 
    *   5   -0.028028  (    7,    1)  2AB 8AA 
    *   6    0.028028  (    1,    7)  2AA 8AB 
    *   7    0.021883  (    3,    7)  4AA 8AB 
    *   8   -0.021883  (    7,    3)  4AB 8AA 
    *   9   -0.018198  (    2,    5)  3AA 6AB 
    *  10    0.018198  (    5,    2)  3AB 6AA 
    *  11    0.016749  (    1,    8)  2AA 9AB 
    *  12   -0.016749  (    8,    1)  2AB 9AA 
    *  13    0.014460  (    4,    2)  3AB 5AA 
    *  14   -0.014460  (    2,    4)  3AA 5AB 
    *  15    0.013077  (    3,    8)  4AA 9AB 
    *  16   -0.013077  (    8,    3)  4AB 9AA 
    *  17    0.002668  (    9,    7)  8AB 10AA 
    *  18   -0.002668  (    7,    9)  8AA 10AB 
    *  19   -0.002099  (    5,    6)  6AA 7AB 
    *  20    0.002099  (    6,    5)  6AB 7AA 


   ==> DETCI root 13 information <==

    DETCI Root 13 energy =     0.791068363837077

   The 20 most important determinants:

    *   1   -0.982852  (    2,    2)  3AX 
    *   2    0.104484  (    3,    3)  4AX 
    *   3    0.066818  (    0,    2)  1AA 3AB 
    *   4    0.066818  (    2,    0)  1AB 3AA 
    *   5   -0.055222  (    6,    0)  1AB 7AA 
    *   6   -0.055222  (    0,    6)  1AA 7AB 
    *   7   -0.054203  (    0,    0)  1AX 
    *   8   -0.042934  (    1,    1)  2AX 
    *   9    0.025453  (    2,    6)  3AA 7AB 
    *  10    0.025453  (    6,    2)  3AB 7AA 
    *  11   -0.024994  (    3,    1)  2AB 4AA 
    *  12   -0.024994  (    1,    3)  2AA 4AB 
    *  13    0.013297  (    3,    9)  4AA 10AB 
    *  14    0.013297  (    9,    3)  4AB 10AA 
    *  15    0.010870  (    6,    6)  7AX 
    *  16    0.010139  (    4,    4)  5AX 
    *  17    0.010139  (    5,    5)  6AX 
    *  18    0.006110  (    9,    9)  10AX 
    *  19    0.002764  (    7,    7)  8AX 
    *  20    0.002764  (    8,    8)  9AX 


   ==> DETCI root 14 information <==

    DETCI Root 14 energy =     0.873896872167912

   The 20 most important determinants:

    *   1   -0.664441  (    1,    3)  2AA 4AB 
    *   2   -0.664441  (    3,    1)  2AB 4AA 
    *   3    0.244604  (    1,    1)  2AX 
    *   4    0.115120  (    6,    0)  1AB 7AA 
    *   5    0.115120  (    0,    6)  1AA 7AB 
    *   6   -0.111028  (    3,    3)  4AX 
    *   7   -0.076641  (    2,    0)  1AB 3AA 
    *   8   -0.076641  (    0,    2)  1AA 3AB 
    *   9   -0.042778  (    0,    0)  1AX 
    *  10    0.030827  (    6,    6)  7AX 
    *  11   -0.026545  (    9,    1)  2AB 10AA 
    *  12   -0.026545  (    1,    9)  2AA 10AB 
    *  13    0.025118  (    5,    5)  6AX 
    *  14    0.025118  (    4,    4)  5AX 
    *  15    0.016403  (    6,    2)  3AB 7AA 
    *  16    0.016403  (    2,    6)  3AA 7AB 
    *  17    0.014669  (    8,    8)  9AX 
    *  18    0.014669  (    7,    7)  8AX 
    *  19    0.009967  (    9,    9)  10AX 
    *  20   -0.007698  (    2,    2)  3AX 


   ==> DETCI root 15 information <==

    DETCI Root 15 energy =     0.936397200560088

   The 20 most important determinants:

    *   1   -0.679493  (    4,    0)  1AB 5AA 
    *   2   -0.679493  (    0,    4)  1AA 5AB 
    *   3   -0.168008  (    0,    5)  1AA 6AB 
    *   4   -0.168008  (    5,    0)  1AB 6AA 
    *   5    0.070560  (    7,    1)  2AB 8AA 
    *   6    0.070560  (    1,    7)  2AA 8AB 
    *   7    0.052786  (    3,    7)  4AA 8AB 
    *   8    0.052786  (    7,    3)  4AB 8AA 
    *   9    0.042275  (    4,    2)  3AB 5AA 
    *  10    0.042275  (    2,    4)  3AA 5AB 
    *  11   -0.014793  (    6,    4)  5AB 7AA 
    *  12   -0.014793  (    4,    6)  5AA 7AB 
    *  13    0.010453  (    5,    2)  3AB 6AA 
    *  14    0.010453  (    2,    5)  3AA 6AB 
    *  15   -0.008387  (    1,    8)  2AA 9AB 
    *  16   -0.008387  (    8,    1)  2AB 9AA 
    *  17    0.007678  (    9,    7)  8AB 10AA 
    *  18    0.007678  (    7,    9)  8AA 10AB 
    *  19   -0.006275  (    3,    8)  4AA 9AB 
    *  20   -0.006275  (    8,    3)  4AB 9AA 


   ==> DETCI root 16 information <==

    DETCI Root 16 energy =     0.936397200560093

   The 20 most important determinants:

    *   1   -0.679493  (    5,    0)  1AB 6AA 
    *   2   -0.679493  (    0,    5)  1AA 6AB 
    *   3    0.168008  (    0,    4)  1AA 5AB 
    *   4    0.168008  (    4,    0)  1AB 5AA 
    *   5    0.070560  (    1,    8)  2AA 9AB 
    *   6    0.070560  (    8,    1)  2AB 9AA 
    *   7    0.052786  (    3,    8)  4AA 9AB 
    *   8    0.052786  (    8,    3)  4AB 9AA 
    *   9    0.042275  (    5,    2)  3AB 6AA 
    *  10    0.042275  (    2,    5)  3AA 6AB 
    *  11   -0.014793  (    5,    6)  6AA 7AB 
    *  12   -0.014793  (    6,    5)  6AB 7AA 
    *  13   -0.010453  (    2,    4)  3AA 5AB 
    *  14   -0.010453  (    4,    2)  3AB 5AA 
    *  15    0.008387  (    1,    7)  2AA 8AB 
    *  16    0.008387  (    7,    1)  2AB 8AA 
    *  17    0.007678  (    9,    8)  9AB 10AA 
    *  18    0.007678  (    8,    9)  9AA 10AB 
    *  19    0.006275  (    7,    3)  4AB 8AA 
    *  20    0.006275  (    3,    7)  4AA 8AB 


   ==> DETCI root 17 information <==

    DETCI Root 17 energy =     1.140964823958516

   The 20 most important determinants:

    *   1   -0.695310  (    3,    2)  3AB 4AA 
    *   2    0.695310  (    2,    3)  3AA 4AB 
    *   3    0.096218  (    1,    2)  2AA 3AB 
    *   4   -0.096218  (    2,    1)  2AB 3AA 
    *   5   -0.072577  (    0,    3)  1AA 4AB 
    *   6    0.072577  (    3,    0)  1AB 4AA 
    *   7   -0.031339  (    1,    0)  1AB 2AA 
    *   8    0.031339  (    0,    1)  1AA 2AB 
    *   9    0.029061  (    2,    9)  3AA 10AB 
    *  10   -0.029061  (    9,    2)  3AB 10AA 
    *  11    0.008560  (    9,    0)  1AB 10AA 
    *  12   -0.008560  (    0,    9)  1AA 10AB 
    *  13   -0.007187  (    9,    6)  7AB 10AA 
    *  14    0.007187  (    6,    9)  7AA 10AB 
    *  15    0.007086  (    6,    1)  2AB 7AA 
    *  16   -0.007086  (    1,    6)  2AA 7AB 
    *  17    0.002438  (    6,    3)  4AB 7AA 
    *  18   -0.002438  (    3,    6)  4AA 7AB 
    *  19    0.002228  (    8,    5)  6AB 9AA 
    *  20    0.002228  (    7,    4)  5AB 8AA 


   ==> DETCI root 18 information <==

    DETCI Root 18 energy =     1.255350612918939

   The 20 most important determinants:

    *   1   -0.672869  (    1,    4)  2AA 5AB 
    *   2   -0.672869  (    4,    1)  2AB 5AA 
    *   3    0.195006  (    0,    7)  1AA 8AB 
    *   4    0.195006  (    7,    0)  1AB 8AA 
    *   5   -0.068050  (    8,    0)  1AB 9AA 
    *   6   -0.068050  (    0,    8)  1AA 9AB 
    *   7   -0.063302  (    3,    4)  4AA 5AB 
    *   8   -0.063302  (    4,    3)  4AB 5AA 
    *   9   -0.016793  (    1,    5)  2AA 6AB 
    *  10   -0.016793  (    5,    1)  2AB 6AA 
    *  11    0.013094  (    6,    7)  7AA 8AB 
    *  12    0.013094  (    7,    6)  7AB 8AA 
    *  13    0.009392  (    7,    2)  3AB 8AA 
    *  14    0.009392  (    2,    7)  3AA 8AB 
    *  15   -0.004569  (    8,    6)  7AB 9AA 
    *  16   -0.004569  (    6,    8)  7AA 9AB 
    *  17   -0.003278  (    2,    8)  3AA 9AB 
    *  18   -0.003278  (    8,    2)  3AB 9AA 
    *  19   -0.002407  (    9,    4)  5AB 10AA 
    *  20   -0.002407  (    4,    9)  5AA 10AB 


   ==> DETCI root 19 information <==

    DETCI Root 19 energy =     1.255350612918943

   The 20 most important determinants:

    *   1   -0.672869  (    1,    5)  2AA 6AB 
    *   2   -0.672869  (    5,    1)  2AB 6AA 
    *   3    0.195006  (    0,    8)  1AA 9AB 
    *   4    0.195006  (    8,    0)  1AB 9AA 
    *   5    0.068050  (    0,    7)  1AA 8AB 
    *   6    0.068050  (    7,    0)  1AB 8AA 
    *   7   -0.063302  (    3,    5)  4AA 6AB 
    *   8   -0.063302  (    5,    3)  4AB 6AA 
    *   9    0.016793  (    1,    4)  2AA 5AB 
    *  10    0.016793  (    4,    1)  2AB 5AA 
    *  11    0.013094  (    6,    8)  7AA 9AB 
    *  12    0.013094  (    8,    6)  7AB 9AA 
    *  13    0.009392  (    8,    2)  3AB 9AA 
    *  14    0.009392  (    2,    8)  3AA 9AB 
    *  15    0.004569  (    6,    7)  7AA 8AB 
    *  16    0.004569  (    7,    6)  7AB 8AA 
    *  17    0.003278  (    7,    2)  3AB 8AA 
    *  18    0.003278  (    2,    7)  3AA 8AB 
    *  19   -0.002407  (    9,    5)  6AB 10AA 
    *  20   -0.002407  (    5,    9)  6AA 10AB 


   ==> DETCI root 20 information <==

    DETCI Root 20 energy =     1.255516220351548

   The 20 most important determinants:

    *   1    0.557488  (    5,    1)  2AB 6AA 
    *   2   -0.557488  (    1,    5)  2AA 6AB 
    *   3    0.424376  (    4,    1)  2AB 5AA 
    *   4   -0.424376  (    1,    4)  2AA 5AB 
    *   5   -0.056544  (    7,    0)  1AB 8AA 
    *   6    0.056544  (    0,    7)  1AA 8AB 
    *   7    0.052301  (    5,    3)  4AB 6AA 
    *   8   -0.052301  (    3,    5)  4AA 6AB 
    *   9    0.039813  (    4,    3)  4AB 5AA 
    *  10   -0.039813  (    3,    4)  4AA 5AB 
    *  11   -0.035407  (    8,    0)  1AB 9AA 
    *  12    0.035407  (    0,    8)  1AA 9AB 
    *  13   -0.014389  (    7,    6)  7AB 8AA 
    *  14    0.014389  (    6,    7)  7AA 8AB 
    *  15   -0.009010  (    8,    6)  7AB 9AA 
    *  16    0.009010  (    6,    8)  7AA 9AB 
    *  17   -0.006033  (    2,    7)  3AA 8AB 
    *  18    0.006033  (    7,    2)  3AB 8AA 
    *  19   -0.003777  (    2,    8)  3AA 9AB 
    *  20    0.003777  (    8,    2)  3AB 9AA 


   ==> DETCI root 21 information <==

    DETCI Root 21 energy =     1.255516220351549

   The 20 most important determinants:

    *   1    0.557488  (    4,    1)  2AB 5AA 
    *   2   -0.557488  (    1,    4)  2AA 5AB 
    *   3   -0.424376  (    5,    1)  2AB 6AA 
    *   4    0.424376  (    1,    5)  2AA 6AB 
    *   5    0.056544  (    8,    0)  1AB 9AA 
    *   6   -0.056544  (    0,    8)  1AA 9AB 
    *   7    0.052301  (    4,    3)  4AB 5AA 
    *   8   -0.052301  (    3,    4)  4AA 5AB 
    *   9   -0.039813  (    5,    3)  4AB 6AA 
    *  10    0.039813  (    3,    5)  4AA 6AB 
    *  11    0.035407  (    0,    7)  1AA 8AB 
    *  12   -0.035407  (    7,    0)  1AB 8AA 
    *  13    0.014389  (    8,    6)  7AB 9AA 
    *  14   -0.014389  (    6,    8)  7AA 9AB 
    *  15    0.009010  (    6,    7)  7AA 8AB 
    *  16   -0.009010  (    7,    6)  7AB 8AA 
    *  17    0.006033  (    2,    8)  3AA 9AB 
    *  18   -0.006033  (    8,    2)  3AB 9AA 
    *  19    0.003777  (    7,    2)  3AB 8AA 
    *  20   -0.003777  (    2,    7)  3AA 8AB 


   ==> DETCI root 22 information <==

    DETCI Root 22 energy =     1.322964194499135

   The 20 most important determinants:

    *   1    0.693541  (    2,    3)  3AA 4AB 
    *   2    0.693541  (    3,    2)  3AB 4AA 
    *   3   -0.089330  (    2,    1)  2AB 3AA 
    *   4   -0.089330  (    1,    2)  2AA 3AB 
    *   5   -0.067436  (    3,    6)  4AA 7AB 
    *   6   -0.067436  (    6,    3)  4AB 7AA 
    *   7    0.050051  (    3,    0)  1AB 4AA 
    *   8    0.050051  (    0,    3)  1AA 4AB 
    *   9   -0.046489  (    0,    9)  1AA 10AB 
    *  10   -0.046489  (    9,    0)  1AB 10AA 
    *  11    0.035119  (    1,    0)  1AB 2AA 
    *  12    0.035119  (    0,    1)  1AA 2AB 
    *  13   -0.013935  (    7,    4)  5AB 8AA 
    *  14   -0.013935  (    5,    8)  6AA 9AB 
    *  15   -0.013935  (    4,    7)  5AA 8AB 
    *  16   -0.013935  (    8,    5)  6AB 9AA 
    *  17    0.011258  (    6,    1)  2AB 7AA 
    *  18    0.011258  (    1,    6)  2AA 7AB 
    *  19    0.005256  (    8,    4)  5AB 9AA 
    *  20   -0.005256  (    7,    5)  6AB 8AA 


   ==> DETCI root 23 information <==

    DETCI Root 23 energy =     1.473081089940203

   The 20 most important determinants:

    *   1   -0.705153  (    6,    0)  1AB 7AA 
    *   2    0.705153  (    0,    6)  1AA 7AB 
    *   3   -0.026734  (    2,    0)  1AB 3AA 
    *   4    0.026734  (    0,    2)  1AA 3AB 
    *   5    0.026437  (    2,    6)  3AA 7AB 
    *   6   -0.026437  (    6,    2)  3AB 7AA 
    *   7   -0.025488  (    9,    1)  2AB 10AA 
    *   8    0.025488  (    1,    9)  2AA 10AB 
    *   9   -0.021130  (    9,    3)  4AB 10AA 
    *  10    0.021130  (    3,    9)  4AA 10AB 
    *  11   -0.015778  (    3,    1)  2AB 4AA 
    *  12    0.015778  (    1,    3)  2AA 4AB 


   ==> DETCI root 24 information <==

    DETCI Root 24 energy =     1.584185756215851

   The 20 most important determinants:

    *   1    0.563823  (    6,    0)  1AB 7AA 
    *   2    0.563823  (    0,    6)  1AA 7AB 
    *   3   -0.545622  (    3,    3)  4AX 
    *   4    0.143939  (    3,    1)  2AB 4AA 
    *   5    0.143939  (    1,    3)  2AA 4AB 
    *   6   -0.128216  (    2,    2)  3AX 
    *   7    0.042713  (    9,    1)  2AB 10AA 
    *   8    0.042713  (    1,    9)  2AA 10AB 
    *   9    0.039990  (    5,    5)  6AX 
    *  10    0.039990  (    4,    4)  5AX 
    *  11   -0.019585  (    2,    0)  1AB 3AA 
    *  12   -0.019585  (    0,    2)  1AA 3AB 
    *  13   -0.018275  (    0,    0)  1AX 
    *  14   -0.016773  (    1,    1)  2AX 
    *  15    0.010262  (    6,    6)  7AX 
    *  16    0.008977  (    9,    3)  4AB 10AA 
    *  17    0.008977  (    3,    9)  4AA 10AB 
    *  18    0.007817  (    9,    9)  10AX 
    *  19   -0.004531  (    8,    8)  9AX 
    *  20   -0.004531  (    7,    7)  8AX 


   ==> DETCI root 25 information <==

    DETCI Root 25 energy =     1.724885514798002

   The 20 most important determinants:

    *   1   -0.661652  (    4,    2)  3AB 5AA 
    *   2    0.661652  (    2,    4)  3AA 5AB 
    *   3   -0.243768  (    5,    2)  3AB 6AA 
    *   4    0.243768  (    2,    5)  3AA 6AB 
    *   5    0.040888  (    7,    3)  4AB 8AA 
    *   6   -0.040888  (    3,    7)  4AA 8AB 
    *   7   -0.022521  (    0,    4)  1AA 5AB 
    *   8    0.022521  (    4,    0)  1AB 5AA 
    *   9   -0.017147  (    7,    1)  2AB 8AA 
    *  10    0.017147  (    1,    7)  2AA 8AB 
    *  11   -0.013136  (    6,    4)  5AB 7AA 
    *  12    0.013136  (    4,    6)  5AA 7AB 
    *  13   -0.008297  (    0,    5)  1AA 6AB 
    *  14    0.008297  (    5,    0)  1AB 6AA 
    *  15    0.007453  (    7,    9)  8AA 10AB 
    *  16   -0.007453  (    9,    7)  8AB 10AA 
    *  17   -0.004840  (    6,    5)  6AB 7AA 
    *  18    0.004840  (    5,    6)  6AA 7AB 
    *  19    0.000315  (    3,    8)  4AA 9AB 
    *  20   -0.000315  (    8,    3)  4AB 9AA 


   ==> DETCI root 26 information <==

    DETCI Root 26 energy =     1.724885514798003

   The 20 most important determinants:

    *   1    0.661652  (    5,    2)  3AB 6AA 
    *   2   -0.661652  (    2,    5)  3AA 6AB 
    *   3   -0.243768  (    4,    2)  3AB 5AA 
    *   4    0.243768  (    2,    4)  3AA 5AB 
    *   5   -0.040888  (    8,    3)  4AB 9AA 
    *   6    0.040888  (    3,    8)  4AA 9AB 
    *   7    0.022521  (    0,    5)  1AA 6AB 
    *   8   -0.022521  (    5,    0)  1AB 6AA 
    *   9   -0.017147  (    1,    8)  2AA 9AB 
    *  10    0.017147  (    8,    1)  2AB 9AA 
    *  11    0.013136  (    6,    5)  6AB 7AA 
    *  12   -0.013136  (    5,    6)  6AA 7AB 
    *  13   -0.008297  (    0,    4)  1AA 5AB 
    *  14    0.008297  (    4,    0)  1AB 5AA 
    *  15   -0.007453  (    8,    9)  9AA 10AB 
    *  16    0.007453  (    9,    8)  9AB 10AA 
    *  17   -0.004840  (    6,    4)  5AB 7AA 
    *  18    0.004840  (    4,    6)  5AA 7AB 
    *  19    0.000315  (    3,    7)  4AA 8AB 
    *  20   -0.000315  (    7,    3)  4AB 8AA 


   ==> DETCI root 27 information <==

    DETCI Root 27 energy =     1.727138287244040

   The 20 most important determinants:

    *   1    0.699056  (    0,    7)  1AA 8AB 
    *   2   -0.699056  (    7,    0)  1AB 8AA 
    *   3    0.066562  (    1,    4)  2AA 5AB 
    *   4   -0.066562  (    4,    1)  2AB 5AA 
    *   5    0.060012  (    4,    3)  4AB 5AA 
    *   6   -0.060012  (    3,    4)  4AA 5AB 
    *   7    0.030200  (    0,    8)  1AA 9AB 
    *   8   -0.030200  (    8,    0)  1AB 9AA 
    *   9    0.030014  (    2,    7)  3AA 8AB 
    *  10   -0.030014  (    7,    2)  3AB 8AA 
    *  11    0.028447  (    1,    5)  2AA 6AB 
    *  12   -0.028447  (    5,    1)  2AB 6AA 
    *  13   -0.025648  (    3,    5)  4AA 6AB 
    *  14    0.025648  (    5,    3)  4AB 6AA 
    *  15   -0.002461  (    6,    7)  7AA 8AB 
    *  16    0.002461  (    7,    6)  7AB 8AA 
    *  17   -0.001297  (    8,    2)  3AB 9AA 
    *  18    0.001297  (    2,    8)  3AA 9AB 
    *  19    0.000731  (    4,    9)  5AA 10AB 
    *  20   -0.000731  (    9,    4)  5AB 10AA 


   ==> DETCI root 28 information <==

    DETCI Root 28 energy =     1.727138287244042

   The 20 most important determinants:

    *   1   -0.699056  (    0,    8)  1AA 9AB 
    *   2    0.699056  (    8,    0)  1AB 9AA 
    *   3   -0.066562  (    1,    5)  2AA 6AB 
    *   4    0.066562  (    5,    1)  2AB 6AA 
    *   5    0.060012  (    3,    5)  4AA 6AB 
    *   6   -0.060012  (    5,    3)  4AB 6AA 
    *   7   -0.030200  (    7,    0)  1AB 8AA 
    *   8    0.030200  (    0,    7)  1AA 8AB 
    *   9   -0.030014  (    2,    8)  3AA 9AB 
    *  10    0.030014  (    8,    2)  3AB 9AA 
    *  11   -0.028447  (    4,    1)  2AB 5AA 
    *  12    0.028447  (    1,    4)  2AA 5AB 
    *  13    0.025648  (    4,    3)  4AB 5AA 
    *  14   -0.025648  (    3,    4)  4AA 5AB 
    *  15    0.002461  (    6,    8)  7AA 9AB 
    *  16   -0.002461  (    8,    6)  7AB 9AA 
    *  17    0.001297  (    2,    7)  3AA 8AB 
    *  18   -0.001297  (    7,    2)  3AB 8AA 
    *  19    0.000731  (    9,    5)  6AB 10AA 
    *  20   -0.000731  (    5,    9)  6AA 10AB 


   ==> DETCI root 29 information <==

    DETCI Root 29 energy =     1.775830521127040

   The 20 most important determinants:

    *   1    0.638705  (    2,    4)  3AA 5AB 
    *   2    0.638705  (    4,    2)  3AB 5AA 
    *   3    0.293076  (    2,    5)  3AA 6AB 
    *   4    0.293076  (    5,    2)  3AB 6AA 
    *   5   -0.066104  (    3,    7)  4AA 8AB 
    *   6   -0.066104  (    7,    3)  4AB 8AA 
    *   7    0.033484  (    4,    0)  1AB 5AA 
    *   8    0.033484  (    0,    4)  1AA 5AB 
    *   9   -0.015951  (    7,    1)  2AB 8AA 
    *  10   -0.015951  (    1,    7)  2AA 8AB 
    *  11    0.015364  (    0,    5)  1AA 6AB 
    *  12    0.015364  (    5,    0)  1AB 6AA 
    *  13   -0.011800  (    7,    9)  8AA 10AB 
    *  14   -0.011800  (    9,    7)  8AB 10AA 
    *  15   -0.004601  (    8,    3)  4AB 9AA 
    *  16   -0.004601  (    3,    8)  4AA 9AB 
    *  17    0.003913  (    4,    6)  5AA 7AB 
    *  18    0.003913  (    6,    4)  5AB 7AA 
    *  19    0.001796  (    5,    6)  6AA 7AB 
    *  20    0.001796  (    6,    5)  6AB 7AA 


   ==> DETCI root 30 information <==

    DETCI Root 30 energy =     1.775830521127043

   The 20 most important determinants:

    *   1    0.638705  (    2,    5)  3AA 6AB 
    *   2    0.638705  (    5,    2)  3AB 6AA 
    *   3   -0.293076  (    4,    2)  3AB 5AA 
    *   4   -0.293076  (    2,    4)  3AA 5AB 
    *   5   -0.066104  (    3,    8)  4AA 9AB 
    *   6   -0.066104  (    8,    3)  4AB 9AA 
    *   7    0.033484  (    5,    0)  1AB 6AA 
    *   8    0.033484  (    0,    5)  1AA 6AB 
    *   9   -0.015951  (    8,    1)  2AB 9AA 
    *  10   -0.015951  (    1,    8)  2AA 9AB 
    *  11   -0.015364  (    0,    4)  1AA 5AB 
    *  12   -0.015364  (    4,    0)  1AB 5AA 
    *  13   -0.011800  (    9,    8)  9AB 10AA 
    *  14   -0.011800  (    8,    9)  9AA 10AB 
    *  15    0.004601  (    7,    3)  4AB 8AA 
    *  16    0.004601  (    3,    7)  4AA 8AB 
    *  17    0.003913  (    6,    5)  6AB 7AA 
    *  18    0.003913  (    5,    6)  6AA 7AB 
    *  19   -0.001796  (    6,    4)  5AB 7AA 
    *  20   -0.001796  (    4,    6)  5AA 7AB 


   ==> DETCI root 31 information <==

    DETCI Root 31 energy =     1.812043799159478

   The 20 most important determinants:

    *   1    0.604873  (    7,    0)  1AB 8AA 
    *   2    0.604873  (    0,    7)  1AA 8AB 
    *   3   -0.253059  (    4,    3)  4AB 5AA 
    *   4   -0.253059  (    3,    4)  4AA 5AB 
    *   5    0.189997  (    4,    1)  2AB 5AA 
    *   6    0.189997  (    1,    4)  2AA 5AB 
    *   7   -0.131483  (    5,    3)  4AB 6AA 
    *   8   -0.131483  (    3,    5)  4AA 6AB 
    *   9    0.098718  (    5,    1)  2AB 6AA 
    *  10    0.098718  (    1,    5)  2AA 6AB 
    *  11    0.072002  (    8,    0)  1AB 9AA 
    *  12    0.072002  (    0,    8)  1AA 9AB 
    *  13    0.035711  (    7,    2)  3AB 8AA 
    *  14    0.035711  (    2,    7)  3AA 8AB 
    *  15   -0.016608  (    4,    9)  5AA 10AB 
    *  16   -0.016608  (    9,    4)  5AB 10AA 
    *  17   -0.011292  (    7,    6)  7AB 8AA 
    *  18   -0.011292  (    6,    7)  7AA 8AB 
    *  19   -0.008629  (    9,    5)  6AB 10AA 
    *  20   -0.008629  (    5,    9)  6AA 10AB 


   ==> DETCI root 32 information <==

    DETCI Root 32 energy =     1.812043799159481

   The 20 most important determinants:

    *   1   -0.604873  (    8,    0)  1AB 9AA 
    *   2   -0.604873  (    0,    8)  1AA 9AB 
    *   3    0.253059  (    5,    3)  4AB 6AA 
    *   4    0.253059  (    3,    5)  4AA 6AB 
    *   5   -0.189997  (    5,    1)  2AB 6AA 
    *   6   -0.189997  (    1,    5)  2AA 6AB 
    *   7   -0.131483  (    3,    4)  4AA 5AB 
    *   8   -0.131483  (    4,    3)  4AB 5AA 
    *   9    0.098718  (    4,    1)  2AB 5AA 
    *  10    0.098718  (    1,    4)  2AA 5AB 
    *  11    0.072002  (    0,    7)  1AA 8AB 
    *  12    0.072002  (    7,    0)  1AB 8AA 
    *  13   -0.035711  (    8,    2)  3AB 9AA 
    *  14   -0.035711  (    2,    8)  3AA 9AB 
    *  15    0.016608  (    5,    9)  6AA 10AB 
    *  16    0.016608  (    9,    5)  6AB 10AA 
    *  17    0.011292  (    8,    6)  7AB 9AA 
    *  18    0.011292  (    6,    8)  7AA 9AB 
    *  19   -0.008629  (    9,    4)  5AB 10AA 
    *  20   -0.008629  (    4,    9)  5AA 10AB 


   ==> DETCI root 33 information <==

    DETCI Root 33 energy =     1.818284023271031

   The 20 most important determinants:

    *   1   -0.798800  (    3,    3)  4AX 
    *   2   -0.394785  (    0,    6)  1AA 7AB 
    *   3   -0.394785  (    6,    0)  1AB 7AA 
    *   4    0.131430  (    2,    6)  3AA 7AB 
    *   5    0.131430  (    6,    2)  3AB 7AA 
    *   6   -0.053328  (    1,    1)  2AX 
    *   7    0.048674  (    6,    6)  7AX 
    *   8   -0.041321  (    2,    0)  1AB 3AA 
    *   9   -0.041321  (    0,    2)  1AA 3AB 
    *  10   -0.035653  (    0,    0)  1AX 
    *  11   -0.034743  (    2,    2)  3AX 
    *  12   -0.030650  (    3,    9)  4AA 10AB 
    *  13   -0.030650  (    9,    3)  4AB 10AA 
    *  14    0.027374  (    7,    7)  8AX 
    *  15    0.027374  (    8,    8)  9AX 
    *  16    0.019459  (    4,    4)  5AX 
    *  17    0.019459  (    5,    5)  6AX 
    *  18    0.014799  (    9,    9)  10AX 
    *  19   -0.009960  (    9,    1)  2AB 10AA 
    *  20   -0.009960  (    1,    9)  2AA 10AB 


   ==> DETCI root 34 information <==

    DETCI Root 34 energy =     1.974777353118408

   The 20 most important determinants:

    *   1   -0.698123  (    6,    1)  2AB 7AA 
    *   2    0.698123  (    1,    6)  2AA 7AB 
    *   3    0.095978  (    3,    6)  4AA 7AB 
    *   4   -0.095978  (    6,    3)  4AB 7AA 
    *   5   -0.036807  (    2,    1)  2AB 3AA 
    *   6    0.036807  (    1,    2)  2AA 3AB 
    *   7   -0.032171  (    9,    0)  1AB 10AA 
    *   8    0.032171  (    0,    9)  1AA 10AB 
    *   9   -0.027128  (    3,    0)  1AB 4AA 
    *  10    0.027128  (    0,    3)  1AA 4AB 
    *  11   -0.008620  (    9,    6)  7AB 10AA 
    *  12    0.008620  (    6,    9)  7AA 10AB 
    *  13    0.007356  (    9,    2)  3AB 10AA 
    *  14   -0.007356  (    2,    9)  3AA 10AB 
    *  15   -0.007355  (    5,    8)  6AA 9AB 
    *  16    0.007355  (    8,    5)  6AB 9AA 
    *  17   -0.007355  (    4,    7)  5AA 8AB 
    *  18    0.007355  (    7,    4)  5AB 8AA 
    *  19    0.005806  (    2,    3)  3AA 4AB 
    *  20   -0.005806  (    3,    2)  3AB 4AA 


   ==> DETCI root 35 information <==

    DETCI Root 35 energy =     2.092710174978799

   The 20 most important determinants:

    *   1    0.700725  (    1,    6)  2AA 7AB 
    *   2    0.700725  (    6,    1)  2AB 7AA 
    *   3    0.067078  (    0,    9)  1AA 10AB 
    *   4    0.067078  (    9,    0)  1AB 10AA 
    *   5    0.034185  (    0,    3)  1AA 4AB 
    *   6    0.034185  (    3,    0)  1AB 4AA 
    *   7    0.033361  (    1,    2)  2AA 3AB 
    *   8    0.033361  (    2,    1)  2AB 3AA 
    *   9    0.027691  (    1,    0)  1AB 2AA 
    *  10    0.027691  (    0,    1)  1AA 2AB 
    *  11   -0.023257  (    6,    3)  4AB 7AA 
    *  12   -0.023257  (    3,    6)  4AA 7AB 
    *  13    0.019508  (    6,    9)  7AA 10AB 
    *  14    0.019508  (    9,    6)  7AB 10AA 
    *  15   -0.013242  (    4,    7)  5AA 8AB 
    *  16   -0.013242  (    7,    4)  5AB 8AA 
    *  17   -0.013242  (    5,    8)  6AA 9AB 
    *  18   -0.013242  (    8,    5)  6AB 9AA 
    *  19   -0.009354  (    3,    2)  3AB 4AA 
    *  20   -0.009354  (    2,    3)  3AA 4AB 


   ==> DETCI root 36 information <==

    DETCI Root 36 energy =     2.175146120112558

   The 20 most important determinants:

    *   1   -0.622231  (    3,    5)  4AA 6AB 
    *   2    0.622231  (    5,    3)  4AB 6AA 
    *   3   -0.306069  (    4,    3)  4AB 5AA 
    *   4    0.306069  (    3,    4)  4AA 5AB 
    *   5   -0.095335  (    8,    2)  3AB 9AA 
    *   6    0.095335  (    2,    8)  3AA 9AB 
    *   7   -0.074327  (    0,    8)  1AA 9AB 
    *   8    0.074327  (    8,    0)  1AB 9AA 
    *   9   -0.051783  (    5,    1)  2AB 6AA 
    *  10    0.051783  (    1,    5)  2AA 6AB 
    *  11    0.028953  (    6,    8)  7AA 9AB 
    *  12   -0.028953  (    8,    6)  7AB 9AA 
    *  13   -0.025471  (    1,    4)  2AA 5AB 
    *  14    0.025471  (    4,    1)  2AB 5AA 
    *  15   -0.013410  (    9,    5)  6AB 10AA 
    *  16    0.013410  (    5,    9)  6AA 10AB 
    *  17    0.009222  (    7,    2)  3AB 8AA 
    *  18   -0.009222  (    2,    7)  3AA 8AB 
    *  19   -0.007190  (    7,    0)  1AB 8AA 
    *  20    0.007190  (    0,    7)  1AA 8AB 


   ==> DETCI root 37 information <==

    DETCI Root 37 energy =     2.175146120112558

   The 20 most important determinants:

    *   1   -0.622231  (    4,    3)  4AB 5AA 
    *   2    0.622231  (    3,    4)  4AA 5AB 
    *   3   -0.306069  (    5,    3)  4AB 6AA 
    *   4    0.306069  (    3,    5)  4AA 6AB 
    *   5    0.095335  (    7,    2)  3AB 8AA 
    *   6   -0.095335  (    2,    7)  3AA 8AB 
    *   7   -0.074327  (    7,    0)  1AB 8AA 
    *   8    0.074327  (    0,    7)  1AA 8AB 
    *   9   -0.051783  (    1,    4)  2AA 5AB 
    *  10    0.051783  (    4,    1)  2AB 5AA 
    *  11    0.028953  (    7,    6)  7AB 8AA 
    *  12   -0.028953  (    6,    7)  7AA 8AB 
    *  13   -0.025471  (    1,    5)  2AA 6AB 
    *  14    0.025471  (    5,    1)  2AB 6AA 
    *  15    0.013410  (    9,    4)  5AB 10AA 
    *  16   -0.013410  (    4,    9)  5AA 10AB 
    *  17    0.009222  (    8,    2)  3AB 9AA 
    *  18   -0.009222  (    2,    8)  3AA 9AB 
    *  19   -0.007190  (    8,    0)  1AB 9AA 
    *  20    0.007190  (    0,    8)  1AA 9AB 


   ==> DETCI root 38 information <==

    DETCI Root 38 energy =     2.232860669368356

   The 20 most important determinants:

    *   1   -0.699292  (    1,    7)  2AA 8AB 
    *   2    0.699292  (    7,    1)  2AB 8AA 
    *   3   -0.081322  (    3,    7)  4AA 8AB 
    *   4    0.081322  (    7,    3)  4AB 8AA 
    *   5    0.040754  (    1,    8)  2AA 9AB 
    *   6   -0.040754  (    8,    1)  2AB 9AA 
    *   7   -0.034023  (    0,    4)  1AA 5AB 
    *   8    0.034023  (    4,    0)  1AB 5AA 
    *   9    0.033775  (    6,    4)  5AB 7AA 
    *  10   -0.033775  (    4,    6)  5AA 7AB 
    *  11   -0.011205  (    4,    2)  3AB 5AA 
    *  12    0.011205  (    2,    4)  3AA 5AB 
    *  13    0.010617  (    5,    0)  1AB 6AA 
    *  14   -0.010617  (    0,    5)  1AA 6AB 
    *  15    0.010540  (    6,    5)  6AB 7AA 
    *  16   -0.010540  (    5,    6)  6AA 7AB 
    *  17   -0.005872  (    9,    7)  8AB 10AA 
    *  18    0.005872  (    7,    9)  8AA 10AB 
    *  19   -0.004739  (    8,    3)  4AB 9AA 
    *  20    0.004739  (    3,    8)  4AA 9AB 


   ==> DETCI root 39 information <==

    DETCI Root 39 energy =     2.232860669368359

   The 20 most important determinants:

    *   1    0.699292  (    1,    8)  2AA 9AB 
    *   2   -0.699292  (    8,    1)  2AB 9AA 
    *   3   -0.081322  (    8,    3)  4AB 9AA 
    *   4    0.081322  (    3,    8)  4AA 9AB 
    *   5    0.040754  (    1,    7)  2AA 8AB 
    *   6   -0.040754  (    7,    1)  2AB 8AA 
    *   7    0.034023  (    0,    5)  1AA 6AB 
    *   8   -0.034023  (    5,    0)  1AB 6AA 
    *   9   -0.033775  (    6,    5)  6AB 7AA 
    *  10    0.033775  (    5,    6)  6AA 7AB 
    *  11   -0.011205  (    2,    5)  3AA 6AB 
    *  12    0.011205  (    5,    2)  3AB 6AA 
    *  13   -0.010617  (    0,    4)  1AA 5AB 
    *  14    0.010617  (    4,    0)  1AB 5AA 
    *  15   -0.010540  (    4,    6)  5AA 7AB 
    *  16    0.010540  (    6,    4)  5AB 7AA 
    *  17    0.005872  (    9,    8)  9AB 10AA 
    *  18   -0.005872  (    8,    9)  9AA 10AB 
    *  19    0.004739  (    3,    7)  4AA 8AB 
    *  20   -0.004739  (    7,    3)  4AB 8AA 


   ==> DETCI root 40 information <==

    DETCI Root 40 energy =     2.311637560900358

   The 20 most important determinants:

    *   1    0.498685  (    3,    4)  4AA 5AB 
    *   2    0.498685  (    4,    3)  4AB 5AA 
    *   3    0.349606  (    3,    5)  4AA 6AB 
    *   4    0.349606  (    5,    3)  4AB 6AA 
    *   5    0.278440  (    0,    7)  1AA 8AB 
    *   6    0.278440  (    7,    0)  1AB 8AA 
    *   7   -0.204020  (    2,    7)  3AA 8AB 
    *   8   -0.204020  (    7,    2)  3AB 8AA 
    *   9    0.071314  (    8,    0)  1AB 9AA 
    *  10    0.071314  (    0,    8)  1AA 9AB 
    *  11   -0.052253  (    2,    8)  3AA 9AB 
    *  12   -0.052253  (    8,    2)  3AB 9AA 
    *  13   -0.036066  (    6,    7)  7AA 8AB 
    *  14   -0.036066  (    7,    6)  7AB 8AA 
    *  15    0.022122  (    4,    1)  2AB 5AA 
    *  16    0.022122  (    1,    4)  2AA 5AB 
    *  17    0.015509  (    1,    5)  2AA 6AB 
    *  18    0.015509  (    5,    1)  2AB 6AA 
    *  19   -0.009237  (    6,    8)  7AA 9AB 
    *  20   -0.009237  (    8,    6)  7AB 9AA 


   ==> DETCI root 41 information <==

    DETCI Root 41 energy =     2.311637560900359

   The 20 most important determinants:

    *   1   -0.498685  (    3,    5)  4AA 6AB 
    *   2   -0.498685  (    5,    3)  4AB 6AA 
    *   3    0.349606  (    4,    3)  4AB 5AA 
    *   4    0.349606  (    3,    4)  4AA 5AB 
    *   5   -0.278440  (    8,    0)  1AB 9AA 
    *   6   -0.278440  (    0,    8)  1AA 9AB 
    *   7    0.204020  (    2,    8)  3AA 9AB 
    *   8    0.204020  (    8,    2)  3AB 9AA 
    *   9    0.071314  (    7,    0)  1AB 8AA 
    *  10    0.071314  (    0,    7)  1AA 8AB 
    *  11   -0.052253  (    2,    7)  3AA 8AB 
    *  12   -0.052253  (    7,    2)  3AB 8AA 
    *  13    0.036066  (    6,    8)  7AA 9AB 
    *  14    0.036066  (    8,    6)  7AB 9AA 
    *  15   -0.022122  (    5,    1)  2AB 6AA 
    *  16   -0.022122  (    1,    5)  2AA 6AB 
    *  17    0.015509  (    1,    4)  2AA 5AB 
    *  18    0.015509  (    4,    1)  2AB 5AA 
    *  19   -0.009237  (    7,    6)  7AB 8AA 
    *  20   -0.009237  (    6,    7)  7AA 8AB 


   ==> DETCI root 42 information <==

    DETCI Root 42 energy =     2.334313920755779

   The 20 most important determinants:

    *   1   -0.700548  (    7,    1)  2AB 8AA 
    *   2   -0.700548  (    1,    7)  2AA 8AB 
    *   3   -0.066332  (    0,    4)  1AA 5AB 
    *   4   -0.066332  (    4,    0)  1AB 5AA 
    *   5    0.045654  (    4,    6)  5AA 7AB 
    *   6    0.045654  (    6,    4)  5AB 7AA 
    *   7   -0.036120  (    8,    1)  2AB 9AA 
    *   8   -0.036120  (    1,    8)  2AA 9AB 
    *   9   -0.029005  (    5,    0)  1AB 6AA 
    *  10   -0.029005  (    0,    5)  1AA 6AB 
    *  11    0.019963  (    6,    5)  6AB 7AA 
    *  12    0.019963  (    5,    6)  6AA 7AB 
    *  13   -0.010706  (    2,    4)  3AA 5AB 
    *  14   -0.010706  (    4,    2)  3AB 5AA 
    *  15    0.007936  (    3,    7)  4AA 8AB 
    *  16    0.007936  (    7,    3)  4AB 8AA 
    *  17   -0.004682  (    2,    5)  3AA 6AB 
    *  18   -0.004682  (    5,    2)  3AB 6AA 
    *  19    0.002141  (    7,    9)  8AA 10AB 
    *  20    0.002141  (    9,    7)  8AB 10AA 


   ==> DETCI root 43 information <==

    DETCI Root 43 energy =     2.334313920755780

   The 20 most important determinants:

    *   1   -0.700548  (    8,    1)  2AB 9AA 
    *   2   -0.700548  (    1,    8)  2AA 9AB 
    *   3   -0.066332  (    5,    0)  1AB 6AA 
    *   4   -0.066332  (    0,    5)  1AA 6AB 
    *   5    0.045654  (    5,    6)  6AA 7AB 
    *   6    0.045654  (    6,    5)  6AB 7AA 
    *   7    0.036120  (    7,    1)  2AB 8AA 
    *   8    0.036120  (    1,    7)  2AA 8AB 
    *   9    0.029005  (    4,    0)  1AB 5AA 
    *  10    0.029005  (    0,    4)  1AA 5AB 
    *  11   -0.019963  (    4,    6)  5AA 7AB 
    *  12   -0.019963  (    6,    4)  5AB 7AA 
    *  13   -0.010706  (    5,    2)  3AB 6AA 
    *  14   -0.010706  (    2,    5)  3AA 6AB 
    *  15    0.007936  (    3,    8)  4AA 9AB 
    *  16    0.007936  (    8,    3)  4AB 9AA 
    *  17    0.004682  (    2,    4)  3AA 5AB 
    *  18    0.004682  (    4,    2)  3AB 5AA 
    *  19    0.002141  (    9,    8)  9AB 10AA 
    *  20    0.002141  (    8,    9)  9AA 10AB 


   ==> DETCI root 44 information <==

    DETCI Root 44 energy =     2.442702424594938

   The 20 most important determinants:

    *   1    0.705334  (    6,    2)  3AB 7AA 
    *   2   -0.705334  (    2,    6)  3AA 7AB 
    *   3    0.032949  (    9,    3)  4AB 10AA 
    *   4   -0.032949  (    3,    9)  4AA 10AB 
    *   5   -0.026302  (    6,    0)  1AB 7AA 
    *   6    0.026302  (    0,    6)  1AA 7AB 
    *   7    0.023074  (    1,    3)  2AA 4AB 
    *   8   -0.023074  (    3,    1)  2AB 4AA 
    *   9    0.013704  (    0,    2)  1AA 3AB 
    *  10   -0.013704  (    2,    0)  1AB 3AA 
    *  11    0.002570  (    1,    9)  2AA 10AB 
    *  12   -0.002570  (    9,    1)  2AB 10AA 


   ==> DETCI root 45 information <==

    DETCI Root 45 energy =     2.558223261784991

   The 20 most important determinants:

    *   1   -0.689643  (    2,    6)  3AA 7AB 
    *   2   -0.689643  (    6,    2)  3AB 7AA 
    *   3   -0.156299  (    3,    3)  4AX 
    *   4   -0.067598  (    0,    6)  1AA 7AB 
    *   5   -0.067598  (    6,    0)  1AB 7AA 
    *   6   -0.064934  (    4,    4)  5AX 
    *   7   -0.064934  (    5,    5)  6AX 
    *   8   -0.045197  (    2,    2)  3AX 
    *   9    0.041816  (    6,    6)  7AX 
    *  10   -0.025511  (    9,    3)  4AB 10AA 
    *  11   -0.025511  (    3,    9)  4AA 10AB 
    *  12    0.018299  (    7,    7)  8AX 
    *  13    0.018299  (    8,    8)  9AX 
    *  14   -0.017730  (    1,    3)  2AA 4AB 
    *  15   -0.017730  (    3,    1)  2AB 4AA 
    *  16    0.012975  (    9,    1)  2AB 10AA 
    *  17    0.012975  (    1,    9)  2AA 10AB 
    *  18   -0.006198  (    9,    9)  10AX 
    *  19    0.002865  (    0,    0)  1AX 
    *  20    0.001963  (    0,    2)  1AA 3AB 


   ==> DETCI root 46 information <==

    DETCI Root 46 energy =     2.712878808261123

   The 20 most important determinants:

    *   1   -0.668094  (    7,    2)  3AB 8AA 
    *   2    0.668094  (    2,    7)  3AA 8AB 
    *   3    0.207452  (    2,    8)  3AA 9AB 
    *   4   -0.207452  (    8,    2)  3AB 9AA 
    *   5   -0.075977  (    4,    3)  4AB 5AA 
    *   6    0.075977  (    3,    4)  4AA 5AB 
    *   7    0.059183  (    3,    5)  4AA 6AB 
    *   8   -0.059183  (    5,    3)  4AB 6AA 
    *   9   -0.022856  (    6,    7)  7AA 8AB 
    *  10    0.022856  (    7,    6)  7AB 8AA 
    *  11   -0.018363  (    0,    7)  1AA 8AB 
    *  12    0.018363  (    7,    0)  1AB 8AA 
    *  13    0.014624  (    4,    1)  2AB 5AA 
    *  14   -0.014624  (    1,    4)  2AA 5AB 
    *  15   -0.011392  (    1,    5)  2AA 6AB 
    *  16    0.011392  (    5,    1)  2AB 6AA 
    *  17   -0.007097  (    6,    8)  7AA 9AB 
    *  18    0.007097  (    8,    6)  7AB 9AA 
    *  19    0.005734  (    4,    9)  5AA 10AB 
    *  20   -0.005734  (    9,    4)  5AB 10AA 


   ==> DETCI root 47 information <==

    DETCI Root 47 energy =     2.712878808261128

   The 20 most important determinants:

    *   1   -0.668094  (    2,    8)  3AA 9AB 
    *   2    0.668094  (    8,    2)  3AB 9AA 
    *   3   -0.207452  (    7,    2)  3AB 8AA 
    *   4    0.207452  (    2,    7)  3AA 8AB 
    *   5   -0.075977  (    3,    5)  4AA 6AB 
    *   6    0.075977  (    5,    3)  4AB 6AA 
    *   7    0.059183  (    3,    4)  4AA 5AB 
    *   8   -0.059183  (    4,    3)  4AB 5AA 
    *   9    0.022856  (    6,    8)  7AA 9AB 
    *  10   -0.022856  (    8,    6)  7AB 9AA 
    *  11   -0.018363  (    8,    0)  1AB 9AA 
    *  12    0.018363  (    0,    8)  1AA 9AB 
    *  13   -0.014624  (    5,    1)  2AB 6AA 
    *  14    0.014624  (    1,    5)  2AA 6AB 
    *  15   -0.011392  (    1,    4)  2AA 5AB 
    *  16    0.011392  (    4,    1)  2AB 5AA 
    *  17    0.007097  (    7,    6)  7AB 8AA 
    *  18   -0.007097  (    6,    7)  7AA 8AB 
    *  19    0.005734  (    9,    5)  6AB 10AA 
    *  20   -0.005734  (    5,    9)  6AA 10AB 


   ==> DETCI root 48 information <==

    DETCI Root 48 energy =     2.756123222366374

   The 20 most important determinants:

    *   1   -0.705520  (    5,    4)  5AB 6AA 
    *   2    0.705520  (    4,    5)  5AA 6AB 
    *   3    0.047348  (    8,    7)  8AB 9AA 
    *   4   -0.047348  (    7,    8)  8AA 9AB 


   ==> DETCI root 49 information <==

    DETCI Root 49 energy =     2.770904110562608

   The 20 most important determinants:

    *   1   -0.669856  (    2,    7)  3AA 8AB 
    *   2   -0.669856  (    7,    2)  3AB 8AA 
    *   3   -0.184021  (    3,    4)  4AA 5AB 
    *   4   -0.184021  (    4,    3)  4AB 5AA 
    *   5   -0.090663  (    5,    3)  4AB 6AA 
    *   6   -0.090663  (    3,    5)  4AA 6AB 
    *   7   -0.065224  (    8,    2)  3AB 9AA 
    *   8   -0.065224  (    2,    8)  3AA 9AB 
    *   9   -0.052501  (    7,    0)  1AB 8AA 
    *  10   -0.052501  (    0,    7)  1AA 8AB 
    *  11    0.040741  (    6,    7)  7AA 8AB 
    *  12    0.040741  (    7,    6)  7AB 8AA 
    *  13    0.019254  (    9,    4)  5AB 10AA 
    *  14    0.019254  (    4,    9)  5AA 10AB 
    *  15    0.009486  (    9,    5)  6AB 10AA 
    *  16    0.009486  (    5,    9)  6AA 10AB 
    *  17   -0.005443  (    4,    1)  2AB 5AA 
    *  18   -0.005443  (    1,    4)  2AA 5AB 
    *  19   -0.005112  (    0,    8)  1AA 9AB 
    *  20   -0.005112  (    8,    0)  1AB 9AA 


   ==> DETCI root 50 information <==

    DETCI Root 50 energy =     2.770904110562613

   The 20 most important determinants:

    *   1    0.669856  (    8,    2)  3AB 9AA 
    *   2    0.669856  (    2,    8)  3AA 9AB 
    *   3    0.184021  (    5,    3)  4AB 6AA 
    *   4    0.184021  (    3,    5)  4AA 6AB 
    *   5   -0.090663  (    4,    3)  4AB 5AA 
    *   6   -0.090663  (    3,    4)  4AA 5AB 
    *   7   -0.065224  (    2,    7)  3AA 8AB 
    *   8   -0.065224  (    7,    2)  3AB 8AA 
    *   9    0.052501  (    0,    8)  1AA 9AB 
    *  10    0.052501  (    8,    0)  1AB 9AA 
    *  11   -0.040741  (    8,    6)  7AB 9AA 
    *  12   -0.040741  (    6,    8)  7AA 9AB 
    *  13   -0.019254  (    9,    5)  6AB 10AA 
    *  14   -0.019254  (    5,    9)  6AA 10AB 
    *  15    0.009486  (    4,    9)  5AA 10AB 
    *  16    0.009486  (    9,    4)  5AB 10AA 
    *  17    0.005443  (    1,    5)  2AA 6AB 
    *  18    0.005443  (    5,    1)  2AB 6AA 
    *  19   -0.005112  (    7,    0)  1AB 8AA 
    *  20   -0.005112  (    0,    7)  1AA 8AB 


   ==> DETCI root 51 information <==

    DETCI Root 51 energy =     2.827271035448743

   The 20 most important determinants:

    *   1    0.677757  (    4,    4)  5AX 
    *   2   -0.677757  (    5,    5)  6AX 
    *   3    0.190602  (    4,    5)  5AA 6AB 
    *   4    0.190602  (    5,    4)  5AB 6AA 
    *   5   -0.059232  (    7,    7)  8AX 
    *   6    0.059232  (    8,    8)  9AX 
    *   7    0.028413  (    8,    7)  8AB 9AA 
    *   8    0.028413  (    7,    8)  8AA 9AB 


   ==> DETCI root 52 information <==

    DETCI Root 52 energy =     2.827271035448744

   The 20 most important determinants:

    *   1    0.677757  (    4,    5)  5AA 6AB 
    *   2    0.677757  (    5,    4)  5AB 6AA 
    *   3   -0.190602  (    4,    4)  5AX 
    *   4    0.190602  (    5,    5)  6AX 
    *   5   -0.059232  (    7,    8)  8AA 9AB 
    *   6   -0.059232  (    8,    7)  8AB 9AA 
    *   7   -0.028413  (    7,    7)  8AX 
    *   8    0.028413  (    8,    8)  9AX 


   ==> DETCI root 53 information <==

    DETCI Root 53 energy =     2.875494473820177

   The 20 most important determinants:

    *   1    0.696441  (    3,    6)  4AA 7AB 
    *   2   -0.696441  (    6,    3)  4AB 7AA 
    *   3    0.097824  (    6,    1)  2AB 7AA 
    *   4   -0.097824  (    1,    6)  2AA 7AB 
    *   5    0.058334  (    0,    9)  1AA 10AB 
    *   6   -0.058334  (    9,    0)  1AB 10AA 
    *   7    0.026887  (    2,    9)  3AA 10AB 
    *   8   -0.026887  (    9,    2)  3AB 10AA 
    *   9   -0.018776  (    5,    8)  6AA 9AB 
    *  10   -0.018776  (    4,    7)  5AA 8AB 
    *  11    0.018776  (    7,    4)  5AB 8AA 
    *  12    0.018776  (    8,    5)  6AB 9AA 
    *  13    0.018725  (    2,    1)  2AB 3AA 
    *  14   -0.018725  (    1,    2)  2AA 3AB 
    *  15    0.009105  (    0,    1)  1AA 2AB 
    *  16   -0.009105  (    1,    0)  1AB 2AA 
    *  17   -0.007082  (    8,    4)  5AB 9AA 
    *  18    0.007082  (    7,    5)  6AB 8AA 
    *  19    0.007082  (    4,    8)  5AA 9AB 
    *  20   -0.007082  (    5,    7)  6AA 8AB 


   ==> DETCI root 54 information <==

    DETCI Root 54 energy =     2.910496038977385

   The 20 most important determinants:

    *   1   -0.695035  (    5,    5)  6AX 
    *   2   -0.695035  (    4,    4)  5AX 
    *   3    0.084365  (    8,    8)  9AX 
    *   4    0.084365  (    7,    7)  8AX 
    *   5    0.069701  (    6,    2)  3AB 7AA 
    *   6    0.069701  (    2,    6)  3AA 7AB 
    *   7    0.048713  (    6,    6)  7AX 
    *   8   -0.042063  (    0,    0)  1AX 
    *   9    0.032236  (    0,    6)  1AA 7AB 
    *  10    0.032236  (    6,    0)  1AB 7AA 
    *  11   -0.030564  (    3,    3)  4AX 
    *  12   -0.020965  (    2,    0)  1AB 3AA 
    *  13   -0.020965  (    0,    2)  1AA 3AB 
    *  14    0.018711  (    3,    9)  4AA 10AB 
    *  15    0.018711  (    9,    3)  4AB 10AA 
    *  16    0.016506  (    9,    1)  2AB 10AA 
    *  17    0.016506  (    1,    9)  2AA 10AB 
    *  18   -0.015698  (    2,    2)  3AX 
    *  19   -0.011254  (    3,    1)  2AB 4AA 
    *  20   -0.011254  (    1,    3)  2AA 4AB 


   ==> DETCI root 55 information <==

    DETCI Root 55 energy =     3.059902443014291

   The 20 most important determinants:

    *   1   -0.638810  (    6,    3)  4AB 7AA 
    *   2   -0.638810  (    3,    6)  4AA 7AB 
    *   3   -0.275544  (    9,    0)  1AB 10AA 
    *   4   -0.275544  (    0,    9)  1AA 10AB 
    *   5   -0.076672  (    2,    3)  3AA 4AB 
    *   6   -0.076672  (    3,    2)  3AB 4AA 
    *   7   -0.046708  (    9,    2)  3AB 10AA 
    *   8   -0.046708  (    2,    9)  3AA 10AB 
    *   9    0.044354  (    8,    5)  6AB 9AA 
    *  10    0.044354  (    5,    8)  6AA 9AB 
    *  11    0.044354  (    4,    7)  5AA 8AB 
    *  12    0.044354  (    7,    4)  5AB 8AA 
    *  13   -0.041413  (    9,    6)  7AB 10AA 
    *  14   -0.041413  (    6,    9)  7AA 10AB 
    *  15   -0.037068  (    3,    0)  1AB 4AA 
    *  16   -0.037068  (    0,    3)  1AA 4AB 
    *  17   -0.016731  (    8,    4)  5AB 9AA 
    *  18    0.016731  (    5,    7)  6AA 8AB 
    *  19   -0.016731  (    4,    8)  5AA 9AB 
    *  20    0.016731  (    7,    5)  6AB 8AA 


   ==> DETCI root 56 information <==

    DETCI Root 56 energy =     3.134584799107264

   The 20 most important determinants:

    *   1    0.675531  (    7,    3)  4AB 8AA 
    *   2   -0.675531  (    3,    7)  4AA 8AB 
    *   3    0.137285  (    6,    4)  5AB 7AA 
    *   4   -0.137285  (    4,    6)  5AA 7AB 
    *   5   -0.096326  (    3,    8)  4AA 9AB 
    *   6    0.096326  (    8,    3)  4AB 9AA 
    *   7    0.086815  (    1,    7)  2AA 8AB 
    *   8   -0.086815  (    7,    1)  2AB 8AA 
    *   9    0.075417  (    6,    5)  6AB 7AA 
    *  10   -0.075417  (    5,    6)  6AA 7AB 
    *  11    0.034530  (    4,    2)  3AB 5AA 
    *  12   -0.034530  (    2,    4)  3AA 5AB 
    *  13   -0.018969  (    2,    5)  3AA 6AB 
    *  14    0.018969  (    5,    2)  3AB 6AA 
    *  15    0.016455  (    4,    0)  1AB 5AA 
    *  16   -0.016455  (    0,    4)  1AA 5AB 
    *  17   -0.015631  (    9,    7)  8AB 10AA 
    *  18    0.015631  (    7,    9)  8AA 10AB 
    *  19   -0.012379  (    8,    1)  2AB 9AA 
    *  20    0.012379  (    1,    8)  2AA 9AB 


   ==> DETCI root 57 information <==

    DETCI Root 57 energy =     3.134584799107270

   The 20 most important determinants:

    *   1    0.675531  (    8,    3)  4AB 9AA 
    *   2   -0.675531  (    3,    8)  4AA 9AB 
    *   3   -0.137285  (    5,    6)  6AA 7AB 
    *   4    0.137285  (    6,    5)  6AB 7AA 
    *   5   -0.096326  (    7,    3)  4AB 8AA 
    *   6    0.096326  (    3,    7)  4AA 8AB 
    *   7    0.086815  (    1,    8)  2AA 9AB 
    *   8   -0.086815  (    8,    1)  2AB 9AA 
    *   9    0.075417  (    4,    6)  5AA 7AB 
    *  10   -0.075417  (    6,    4)  5AB 7AA 
    *  11    0.034530  (    5,    2)  3AB 6AA 
    *  12   -0.034530  (    2,    5)  3AA 6AB 
    *  13   -0.018969  (    4,    2)  3AB 5AA 
    *  14    0.018969  (    2,    4)  3AA 5AB 
    *  15    0.016455  (    5,    0)  1AB 6AA 
    *  16   -0.016455  (    0,    5)  1AA 6AB 
    *  17   -0.015631  (    9,    8)  9AB 10AA 
    *  18    0.015631  (    8,    9)  9AA 10AB 
    *  19    0.012379  (    7,    1)  2AB 8AA 
    *  20   -0.012379  (    1,    7)  2AA 8AB 


   ==> DETCI root 58 information <==

    DETCI Root 58 energy =     3.254618865922566

   The 20 most important determinants:

    *   1    0.644544  (    7,    3)  4AB 8AA 
    *   2    0.644544  (    3,    7)  4AA 8AB 
    *   3   -0.240857  (    6,    4)  5AB 7AA 
    *   4   -0.240857  (    4,    6)  5AA 7AB 
    *   5   -0.121376  (    6,    5)  6AB 7AA 
    *   6   -0.121376  (    5,    6)  6AA 7AB 
    *   7    0.068633  (    3,    8)  4AA 9AB 
    *   8    0.068633  (    8,    3)  4AB 9AA 
    *   9    0.053006  (    4,    2)  3AB 5AA 
    *  10    0.053006  (    2,    4)  3AA 5AB 
    *  11    0.050802  (    4,    0)  1AB 5AA 
    *  12    0.050802  (    0,    4)  1AA 5AB 
    *  13    0.026712  (    5,    2)  3AB 6AA 
    *  14    0.026712  (    2,    5)  3AA 6AB 
    *  15    0.025601  (    0,    5)  1AA 6AB 
    *  16    0.025601  (    5,    0)  1AB 6AA 
    *  17   -0.018573  (    1,    7)  2AA 8AB 
    *  18   -0.018573  (    7,    1)  2AB 8AA 
    *  19   -0.001978  (    1,    8)  2AA 9AB 
    *  20   -0.001978  (    8,    1)  2AB 9AA 


   ==> DETCI root 59 information <==

    DETCI Root 59 energy =     3.254618865922568

   The 20 most important determinants:

    *   1   -0.644544  (    3,    8)  4AA 9AB 
    *   2   -0.644544  (    8,    3)  4AB 9AA 
    *   3    0.240857  (    6,    5)  6AB 7AA 
    *   4    0.240857  (    5,    6)  6AA 7AB 
    *   5   -0.121376  (    6,    4)  5AB 7AA 
    *   6   -0.121376  (    4,    6)  5AA 7AB 
    *   7    0.068633  (    3,    7)  4AA 8AB 
    *   8    0.068633  (    7,    3)  4AB 8AA 
    *   9   -0.053006  (    2,    5)  3AA 6AB 
    *  10   -0.053006  (    5,    2)  3AB 6AA 
    *  11   -0.050802  (    0,    5)  1AA 6AB 
    *  12   -0.050802  (    5,    0)  1AB 6AA 
    *  13    0.026712  (    2,    4)  3AA 5AB 
    *  14    0.026712  (    4,    2)  3AB 5AA 
    *  15    0.025601  (    0,    4)  1AA 5AB 
    *  16    0.025601  (    4,    0)  1AB 5AA 
    *  17    0.018573  (    1,    8)  2AA 9AB 
    *  18    0.018573  (    8,    1)  2AB 9AA 
    *  19   -0.001978  (    1,    7)  2AA 8AB 
    *  20   -0.001978  (    7,    1)  2AB 8AA 


   ==> DETCI root 60 information <==

    DETCI Root 60 energy =     3.302148397168702

   The 20 most important determinants:

    *   1   -0.700950  (    9,    0)  1AB 10AA 
    *   2    0.700950  (    0,    9)  1AA 10AB 
    *   3    0.064426  (    6,    3)  4AB 7AA 
    *   4   -0.064426  (    3,    6)  4AA 7AB 
    *   5    0.037031  (    8,    5)  6AB 9AA 
    *   6   -0.037031  (    4,    7)  5AA 8AB 
    *   7   -0.037031  (    5,    8)  6AA 9AB 
    *   8    0.037031  (    7,    4)  5AB 8AA 
    *   9    0.023375  (    6,    1)  2AB 7AA 
    *  10   -0.023375  (    1,    6)  2AA 7AB 
    *  11    0.023361  (    3,    0)  1AB 4AA 
    *  12   -0.023361  (    0,    3)  1AA 4AB 
    *  13   -0.013969  (    8,    4)  5AB 9AA 
    *  14    0.013969  (    4,    8)  5AA 9AB 
    *  15    0.013969  (    7,    5)  6AB 8AA 
    *  16   -0.013969  (    5,    7)  6AA 8AB 
    *  17    0.011606  (    9,    6)  7AB 10AA 
    *  18   -0.011606  (    6,    9)  7AA 10AB 
    *  19    0.010939  (    2,    9)  3AA 10AB 
    *  20   -0.010939  (    9,    2)  3AB 10AA 


   ==> DETCI root 61 information <==

    DETCI Root 61 energy =     3.485757307125321

   The 20 most important determinants:

    *   1    0.636848  (    0,    9)  1AA 10AB 
    *   2    0.636848  (    9,    0)  1AB 10AA 
    *   3   -0.273371  (    6,    3)  4AB 7AA 
    *   4   -0.273371  (    3,    6)  4AA 7AB 
    *   5   -0.093019  (    2,    9)  3AA 10AB 
    *   6   -0.093019  (    9,    2)  3AB 10AA 
    *   7   -0.069613  (    1,    6)  2AA 7AB 
    *   8   -0.069613  (    6,    1)  2AB 7AA 
    *   9   -0.040119  (    4,    7)  5AA 8AB 
    *  10   -0.040119  (    5,    8)  6AA 9AB 
    *  11   -0.040119  (    7,    4)  5AB 8AA 
[...]
 ------------------------------------------------------------------------------------

 L = 1.  Multiply by 2.5417464519 to convert [e a0] to [Debye]
 Dipole X            :          0.0000000            0.0000000            0.0000000
 Dipole Y            :         -0.0000000            0.0000000           -0.0000000
 Dipole Z            :          0.0000000            0.0000000            0.0000000
 Magnitude           :                                                    0.0000000

 ------------------------------------------------------------------------------------

Properties computed using the CI ROOT 0 -> ROOT 86 density matrix


Transition Multipole Moments:

 ------------------------------------------------------------------------------------
     Multipole            Electronic (a.u.)      Nuclear  (a.u.)        Total (a.u.)
 ------------------------------------------------------------------------------------

 L = 1.  Multiply by 2.5417464519 to convert [e a0] to [Debye]
 Dipole X            :         -0.0000000            0.0000000           -0.0000000
 Dipole Y            :         -0.0000000            0.0000000           -0.0000000
 Dipole Z            :          0.0000000            0.0000000            0.0000000
 Magnitude           :                                                    0.0000000

 ------------------------------------------------------------------------------------

Properties computed using the CI ROOT 0 -> ROOT 87 density matrix


Transition Multipole Moments:

 ------------------------------------------------------------------------------------
     Multipole            Electronic (a.u.)      Nuclear  (a.u.)        Total (a.u.)
 ------------------------------------------------------------------------------------

 L = 1.  Multiply by 2.5417464519 to convert [e a0] to [Debye]
 Dipole X            :          0.0000000            0.0000000            0.0000000
 Dipole Y            :          0.0000000            0.0000000            0.0000000
 Dipole Z            :          0.0000000            0.0000000            0.0000000
 Magnitude           :                                                    0.0000000

 ------------------------------------------------------------------------------------

Properties computed using the CI ROOT 0 -> ROOT 88 density matrix


Transition Multipole Moments:

 ------------------------------------------------------------------------------------
     Multipole            Electronic (a.u.)      Nuclear  (a.u.)        Total (a.u.)
 ------------------------------------------------------------------------------------

 L = 1.  Multiply by 2.5417464519 to convert [e a0] to [Debye]
 Dipole X            :          0.0000000            0.0000000            0.0000000
 Dipole Y            :          0.0000000            0.0000000            0.0000000
 Dipole Z            :         -0.0000000            0.0000000           -0.0000000
 Magnitude           :                                                    0.0000000

 ------------------------------------------------------------------------------------

Properties computed using the CI ROOT 0 -> ROOT 89 density matrix


Transition Multipole Moments:

 ------------------------------------------------------------------------------------
     Multipole            Electronic (a.u.)      Nuclear  (a.u.)        Total (a.u.)
 ------------------------------------------------------------------------------------

 L = 1.  Multiply by 2.5417464519 to convert [e a0] to [Debye]
 Dipole X            :         -0.0000000            0.0000000           -0.0000000
 Dipole Y            :         -0.0000000            0.0000000           -0.0000000
 Dipole Z            :         -0.0000000            0.0000000           -0.0000000
 Magnitude           :                                                    0.0000000

 ------------------------------------------------------------------------------------

Properties computed using the CI ROOT 0 -> ROOT 90 density matrix


Transition Multipole Moments:

 ------------------------------------------------------------------------------------
     Multipole            Electronic (a.u.)      Nuclear  (a.u.)        Total (a.u.)
 ------------------------------------------------------------------------------------

 L = 1.  Multiply by 2.5417464519 to convert [e a0] to [Debye]
 Dipole X            :          0.0000000            0.0000000            0.0000000
 Dipole Y            :         -0.0000000            0.0000000           -0.0000000
 Dipole Z            :          0.0000000            0.0000000            0.0000000
 Magnitude           :                                                    0.0000000

 ------------------------------------------------------------------------------------

Properties computed using the CI ROOT 0 -> ROOT 91 density matrix


Transition Multipole Moments:

 ------------------------------------------------------------------------------------
     Multipole            Electronic (a.u.)      Nuclear  (a.u.)        Total (a.u.)
 ------------------------------------------------------------------------------------

 L = 1.  Multiply by 2.5417464519 to convert [e a0] to [Debye]
 Dipole X            :          0.0000000            0.0000000            0.0000000
 Dipole Y            :         -0.0000000            0.0000000           -0.0000000
 Dipole Z            :          0.0000000            0.0000000            0.0000000
 Magnitude           :                                                    0.0000000

 ------------------------------------------------------------------------------------

Properties computed using the CI ROOT 0 -> ROOT 92 density matrix


Transition Multipole Moments:

 ------------------------------------------------------------------------------------
     Multipole            Electronic (a.u.)      Nuclear  (a.u.)        Total (a.u.)
 ------------------------------------------------------------------------------------

 L = 1.  Multiply by 2.5417464519 to convert [e a0] to [Debye]
 Dipole X            :         -0.0000000            0.0000000           -0.0000000
 Dipole Y            :          0.0000000            0.0000000            0.0000000
 Dipole Z            :         -0.0000000            0.0000000           -0.0000000
 Magnitude           :                                                    0.0000000

 ------------------------------------------------------------------------------------

Properties computed using the CI ROOT 0 -> ROOT 93 density matrix


Transition Multipole Moments:

 ------------------------------------------------------------------------------------
     Multipole            Electronic (a.u.)      Nuclear  (a.u.)        Total (a.u.)
 ------------------------------------------------------------------------------------

 L = 1.  Multiply by 2.5417464519 to convert [e a0] to [Debye]
 Dipole X            :          0.0000000            0.0000000            0.0000000
 Dipole Y            :         -0.0000000            0.0000000           -0.0000000
 Dipole Z            :          0.0089074            0.0000000            0.0089074
 Magnitude           :                                                    0.0089074

 ------------------------------------------------------------------------------------

Properties computed using the CI ROOT 0 -> ROOT 94 density matrix


Transition Multipole Moments:

 ------------------------------------------------------------------------------------
     Multipole            Electronic (a.u.)      Nuclear  (a.u.)        Total (a.u.)
 ------------------------------------------------------------------------------------

 L = 1.  Multiply by 2.5417464519 to convert [e a0] to [Debye]
 Dipole X            :          0.0002416            0.0000000            0.0002416
 Dipole Y            :         -0.0007645            0.0000000           -0.0007645
 Dipole Z            :          0.0000000            0.0000000            0.0000000
 Magnitude           :                                                    0.0008017

 ------------------------------------------------------------------------------------

Properties computed using the CI ROOT 0 -> ROOT 95 density matrix


Transition Multipole Moments:

 ------------------------------------------------------------------------------------
     Multipole            Electronic (a.u.)      Nuclear  (a.u.)        Total (a.u.)
 ------------------------------------------------------------------------------------

 L = 1.  Multiply by 2.5417464519 to convert [e a0] to [Debye]
 Dipole X            :          0.0007645            0.0000000            0.0007645
 Dipole Y            :          0.0002416            0.0000000            0.0002416
 Dipole Z            :          0.0000000            0.0000000            0.0000000
 Magnitude           :                                                    0.0008017

 ------------------------------------------------------------------------------------

Properties computed using the CI ROOT 0 -> ROOT 96 density matrix


Transition Multipole Moments:

 ------------------------------------------------------------------------------------
     Multipole            Electronic (a.u.)      Nuclear  (a.u.)        Total (a.u.)
 ------------------------------------------------------------------------------------

 L = 1.  Multiply by 2.5417464519 to convert [e a0] to [Debye]
 Dipole X            :         -0.0000000            0.0000000           -0.0000000
 Dipole Y            :          0.0000000            0.0000000            0.0000000
 Dipole Z            :          0.0017492            0.0000000            0.0017492
 Magnitude           :                                                    0.0017492

 ------------------------------------------------------------------------------------

Properties computed using the CI ROOT 0 -> ROOT 97 density matrix


Transition Multipole Moments:

 ------------------------------------------------------------------------------------
     Multipole            Electronic (a.u.)      Nuclear  (a.u.)        Total (a.u.)
 ------------------------------------------------------------------------------------

 L = 1.  Multiply by 2.5417464519 to convert [e a0] to [Debye]
 Dipole X            :         -0.0023828            0.0000000           -0.0023828
 Dipole Y            :          0.0002602            0.0000000            0.0002602
 Dipole Z            :         -0.0000000            0.0000000           -0.0000000
 Magnitude           :                                                    0.0023970

 ------------------------------------------------------------------------------------

Properties computed using the CI ROOT 0 -> ROOT 98 density matrix


Transition Multipole Moments:

 ------------------------------------------------------------------------------------
     Multipole            Electronic (a.u.)      Nuclear  (a.u.)        Total (a.u.)
 ------------------------------------------------------------------------------------

 L = 1.  Multiply by 2.5417464519 to convert [e a0] to [Debye]
 Dipole X            :          0.0002602            0.0000000            0.0002602
 Dipole Y            :          0.0023828            0.0000000            0.0023828
 Dipole Z            :         -0.0000000            0.0000000           -0.0000000
 Magnitude           :                                                    0.0023970

 ------------------------------------------------------------------------------------

Properties computed using the CI ROOT 0 -> ROOT 99 density matrix


Transition Multipole Moments:

 ------------------------------------------------------------------------------------
     Multipole            Electronic (a.u.)      Nuclear  (a.u.)        Total (a.u.)
 ------------------------------------------------------------------------------------

 L = 1.  Multiply by 2.5417464519 to convert [e a0] to [Debye]
 Dipole X            :          0.0000000            0.0000000            0.0000000
 Dipole Y            :         -0.0000000            0.0000000           -0.0000000
 Dipole Z            :          0.0000000            0.0000000            0.0000000
 Magnitude           :                                                    0.0000000

 ------------------------------------------------------------------------------------
  ## AO Mux (Symmetry 0) ##
  Irrep: 1 Size: 10 x 10

                 1                   2                   3                   4                   5

    1     0.00000000000000     0.00000000000000    -0.51848333168869     0.00000000000000     0.00000000000000
    2     0.00000000000000     0.00000000000000    -0.45387881636667     0.00000000000000     0.00000000000000
    3    -0.51848333168869    -0.45387881636667     0.00000000000000     0.00000000000000     0.00000000000000
    4     0.00000000000000     0.00000000000000     0.00000000000000     0.00000000000000     0.00000000000000
    5     0.00000000000000     0.00000000000000     0.00000000000000     0.00000000000000     0.00000000000000
    6     0.00000000000000     0.00000000000000    -0.22198260391161     0.00000000000000     0.00000000000000
    7     0.00000000000000     0.00000000000000    -0.34473513836442     0.00000000000000     0.00000000000000
    8    -0.22198260391161    -0.34473513836442     0.00000000000000     0.00000000000000    -0.23850770401938
    9     0.00000000000000     0.00000000000000     0.00000000000000     0.00000000000000     0.00000000000000
   10     0.00000000000000     0.00000000000000     0.23850770401938     0.00000000000000     0.00000000000000

                 6                   7                   8                   9                  10

    1     0.00000000000000     0.00000000000000    -0.22198260391161     0.00000000000000     0.00000000000000
    2     0.00000000000000     0.00000000000000    -0.34473513836442     0.00000000000000     0.00000000000000
    3    -0.22198260391161    -0.34473513836442     0.00000000000000     0.00000000000000     0.23850770401938
    4     0.00000000000000     0.00000000000000     0.00000000000000     0.00000000000000     0.00000000000000
    5     0.00000000000000     0.00000000000000    -0.23850770401938     0.00000000000000     0.00000000000000
    6     0.00000000000000     0.00000000000000    -0.51848333168869     0.00000000000000     0.00000000000000
    7     0.00000000000000     0.00000000000000    -0.45387881636667     0.00000000000000     0.00000000000000
    8    -0.51848333168869    -0.45387881636667     0.00000000000000     0.00000000000000     0.00000000000000
    9     0.00000000000000     0.00000000000000     0.00000000000000     0.00000000000000     0.00000000000000
   10     0.00000000000000     0.00000000000000     0.00000000000000     0.00000000000000     0.00000000000000



  ## AO Muy (Symmetry 0) ##
  Irrep: 1 Size: 10 x 10

                 1                   2                   3                   4                   5

    1     0.00000000000000     0.00000000000000     0.00000000000000    -0.51848333168869     0.00000000000000
    2     0.00000000000000     0.00000000000000     0.00000000000000    -0.45387881636667     0.00000000000000
    3     0.00000000000000     0.00000000000000     0.00000000000000     0.00000000000000     0.00000000000000
    4    -0.51848333168869    -0.45387881636667     0.00000000000000     0.00000000000000     0.00000000000000
    5     0.00000000000000     0.00000000000000     0.00000000000000     0.00000000000000     0.00000000000000
    6     0.00000000000000     0.00000000000000     0.00000000000000    -0.22198260391161     0.00000000000000
    7     0.00000000000000     0.00000000000000     0.00000000000000    -0.34473513836442     0.00000000000000
    8     0.00000000000000     0.00000000000000     0.00000000000000     0.00000000000000     0.00000000000000
    9    -0.22198260391161    -0.34473513836442     0.00000000000000     0.00000000000000    -0.23850770401938
   10     0.00000000000000     0.00000000000000     0.00000000000000     0.23850770401938     0.00000000000000

                 6                   7                   8                   9                  10

    1     0.00000000000000     0.00000000000000     0.00000000000000    -0.22198260391161     0.00000000000000
    2     0.00000000000000     0.00000000000000     0.00000000000000    -0.34473513836442     0.00000000000000
    3     0.00000000000000     0.00000000000000     0.00000000000000     0.00000000000000     0.00000000000000
    4    -0.22198260391161    -0.34473513836442     0.00000000000000     0.00000000000000     0.23850770401938
    5     0.00000000000000     0.00000000000000     0.00000000000000    -0.23850770401938     0.00000000000000
    6     0.00000000000000     0.00000000000000     0.00000000000000    -0.51848333168869     0.00000000000000
    7     0.00000000000000     0.00000000000000     0.00000000000000    -0.45387881636667     0.00000000000000
    8     0.00000000000000     0.00000000000000     0.00000000000000     0.00000000000000     0.00000000000000
    9    -0.51848333168869    -0.45387881636667     0.00000000000000     0.00000000000000     0.00000000000000
   10     0.00000000000000     0.00000000000000     0.00000000000000     0.00000000000000     0.00000000000000



  ## AO Muz (Symmetry 0) ##
  Irrep: 1 Size: 10 x 10

                 1                   2                   3                   4                   5

    1     0.69919866641940     0.46027692301255     0.00000000000000     0.00000000000000    -0.51848333168869
    2     0.46027692301255     0.69919866641940     0.00000000000000     0.00000000000000    -0.45387881636667
    3     0.00000000000000     0.00000000000000     0.69919866641940     0.00000000000000     0.00000000000000
    4     0.00000000000000     0.00000000000000     0.00000000000000     0.69919866641940     0.00000000000000
    5    -0.51848333168869    -0.45387881636667     0.00000000000000     0.00000000000000     0.69919866641940
    6     0.00000000000000    -0.22409559585490     0.00000000000000     0.00000000000000    -0.18223539398181
    7     0.22409559585490     0.00000000000000     0.00000000000000     0.00000000000000    -0.26381666992899
    8     0.00000000000000     0.00000000000000     0.00000000000000     0.00000000000000     0.00000000000000
    9     0.00000000000000     0.00000000000000     0.00000000000000     0.00000000000000     0.00000000000000
   10    -0.18223539398181    -0.26381666992899     0.00000000000000     0.00000000000000     0.00000000000000

                 6                   7                   8                   9                  10

    1     0.00000000000000     0.22409559585490     0.00000000000000     0.00000000000000    -0.18223539398181
    2    -0.22409559585490     0.00000000000000     0.00000000000000     0.00000000000000    -0.26381666992899
    3     0.00000000000000     0.00000000000000     0.00000000000000     0.00000000000000     0.00000000000000
    4     0.00000000000000     0.00000000000000     0.00000000000000     0.00000000000000     0.00000000000000
    5    -0.18223539398181    -0.26381666992899     0.00000000000000     0.00000000000000     0.00000000000000
    6    -0.69919866641940    -0.46027692301255     0.00000000000000     0.00000000000000    -0.51848333168869
    7    -0.46027692301255    -0.69919866641940     0.00000000000000     0.00000000000000    -0.45387881636667
    8     0.00000000000000     0.00000000000000    -0.69919866641940     0.00000000000000     0.00000000000000
    9     0.00000000000000     0.00000000000000     0.00000000000000    -0.69919866641940     0.00000000000000
   10    -0.51848333168869    -0.45387881636667     0.00000000000000     0.00000000000000    -0.69919866641940




    Psi4 stopped on: Saturday, 29 November 2025 02:15PM
    Psi4 wall time for execution: 0:00:01.30

*** Psi4 exiting successfully. Buy a developer a beer!
