
    -----------------------------------------------------------------------
          Psi4: An Open-Source Ab Initio Electronic Structure Package
                               Psi4 1.10 release

                         Git: Rev {} zzzzzzz 


    D. G. A. Smith, L. A. Burns, A. C. Simmonett, R. M. Parrish,
    M. C. Schieber, R. Galvelis, P. Kraus, H. Kruse, R. Di Remigio,
    A. Alenaizan, A. M. James, S. Lehtola, J. P. Misiewicz, M. Scheurer,
    R. A. Shaw, J. B. Schriber, Y. Xie, Z. L. Glick, D. A. Sirianni,
    J. S. O'Brien, J. M. Waldrop, A. Kumar, E. G. Hohenstein,
    B. P. Pritchard, B. R. Brooks, H. F. Schaefer III, A. Yu. Sokolov,
    K. Patkowski, A. E. DePrince III, U. Bozkaya, R. A. King,
    F. A. Evangelista, J. M. Turney, T. D. Crawford, C. D. Sherrill,
    J. Chem. Phys. 152(18) 184108 (2020). https://doi.org/10.1063/5.0006002

                            Additional Code Authors
    E. T. Seidl, C. L. Janssen, E. F. Valeev, M. L. Leininger,
    J. F. Gonthier, R. M. Richard, H. R. McAlexander, M. Saitow, X. Wang,
    P. Verma, M. H. Lechner, A. Jiang, S. Behnle, A. G. Heide,
    M. F. Herbst, D. L. Poole, T. Győri, E. C. Mitchell, J. P. Pederson,
    and A. M. Wallace

             Previous Authors, Complete List of Code Contributors,
                       and Citations for Specific Modules
    https://github.com/psi4/psi4/blob/master/codemeta.json
    https://github.com/psi4/psi4/graphs/contributors
    https://psicode.org/psi4manual/master/introduction.html#citing-psifour

    -----------------------------------------------------------------------


    Psi4 started on: Tuesday, 23 December 2025 02:59PM

    Process ID: 1823876
    Host:       rclogin01.cluster
    PSIDATADIR: /home/aelkamshishy/.conda/envs/p4env/share/psi4
    Memory:     500.0 MiB
    Threads:    1
    Addons:     a̶d̶c̶c̶, a̶m̶b̶i̶t̶, b̶s̶e̶, c̶c̶t̶3̶, c̶f̶o̶u̶r̶, c̶h̶e̶m̶p̶s̶2̶, c̶p̶p̶e̶, d̶d̶x̶,
                d̶f̶t̶d̶3̶, d̶f̶t̶d̶4̶, dkh, ecpint, einsums, f̶o̶r̶t̶e̶, g̶a̶u̶x̶c̶, g̶c̶p̶,
                g̶d̶m̶a̶, g̶e̶o̶m̶e̶t̶r̶i̶c̶, g̶p̶u̶_̶d̶f̶c̶c̶, i̶n̶t̶e̶g̶r̶a̶t̶o̶r̶x̶x̶,
                i̶p̶i̶, l̶i̶b̶e̶f̶p̶, m̶d̶i̶, m̶p̶2̶d̶, m̶r̶c̶c̶, ooo,
                o̶p̶e̶n̶f̶e̶r̶m̶i̶o̶n̶p̶s̶i̶4̶, pcmsolver, p̶s̶i̶4̶f̶o̶c̶k̶c̶i̶, p̶s̶i̶x̶a̶s̶,
                r̶e̶s̶p̶, s̶i̶m̶i̶n̶t̶, s̶n̶s̶m̶p̶2̶, v̶2̶r̶d̶m̶_̶c̶a̶s̶s̶c̶f̶

  ==> Input File <==

--------------------------------------------------------------------------
memory 1 gb

molecule hehp {
1 1
H  0.       0.      -0.386
He 0.       0.       0.386
symmetry c1
no_com
no_reorient
}

set {
    reference rhf
    basis 6-31g**
    ms0 false
    fci true
    diag_method rsp
    num_roots 100
    print 2
    dipmom true
    opdm true
    tdm true
}

thisenergy, ciwfn = prop('detci', properties=['DIPOLE', 'TRANSITION_DIPOLE'], return_wfn=True)

mints = MintsHelper(ciwfn.basisset())

AOdip = mints.ao_dipole()
AOdip[0].print_out()
AOdip[1].print_out()
AOdip[2].print_out()

# MO coefficients
C = ciwfn.Ca().to_array()

# overlap matrix
S = ciwfn.S().to_array()

print("Overlap test:")
n = S.shape[0]
print(np.mean(np.abs(C.T @ S @ C - np.eye(n))))

# z-direction AO dipole moment matrix
AOdipmat = AOdip[2].to_array()
MOdipmat = C.T @ AOdipmat @ C

# set CI size
cisize = 100

# grab the Hamiltonian
test = psi4.core.variables()
ham = []
for j in range(cisize):
    ham.append( test['CI ROOT '+str(j)+' TOTAL ENERGY'] )
ham = np.array(ham)

print("Diagonalized Hamiltonian:")
print(ham)

# initialize CI dipole moment matrix in z direction
CIdimatzMO = np.zeros((cisize,cisize))
CIdimatzAO = np.zeros((cisize,cisize))
# initialize B tensor
Bten = np.zeros((cisize, cisize, n, n))
for i in range(cisize):
    for j in range(cisize):
        ciop_dm = ciwfn.get_opdm(i,j,'SUM',True)
        # store this in Bten
        Bten[i,j,:,:] = ciop_dm.to_array()
        # density matrix: change basis from MO to AO
        dmAO = C @ ciop_dm.to_array() @ C.T
        # compute this particular density matrix element
        CIdimatzMO[i, j] = np.trace( ciop_dm.to_array() @ MOdipmat )
        CIdimatzAO[i, j] = np.trace( dmAO @ AOdipmat )

print("Difference between CI basis dipole moment matrices computed via AO vs MO:")
print(np.mean(np.abs(CIdimatzMO - CIdimatzAO)))

#CIdimatfile = np.load('../logfiles/casscf24_s15_heh+_6-31g_CI_dimat.npz')
#print("Difference between new and old CI basis dipole moment matrices:")
#print(np.mean(np.abs(CIdimatfile - CIdimatzMO)))

#print("Difference between **diagonals** of new and old CI basis dipole moment matrices:")
#print(np.mean(np.abs(np.diag(CIdimatfile - CIdimatzMO))))

# reshape OPDMs into B tensor

np.savez('./fci_heh+_6-31gss.npz',C=C,S=S,AOdipmat=AOdipmat,CIdimatz=CIdimatzMO,Bten=Bten,ham=ham)

# for debugging purposes:
# Bmat = Bten.reshape((cisize**2, n**2))
# Bmat[np.abs(Bmat) < 1e-14] = 0.0
# print(Bmat)



--------------------------------------------------------------------------

  Memory set to 953.674 MiB by Python driver.
   => Libint2 <=

    Primary   basis highest AM E, G, H:  6, 6, 3
    Auxiliary basis highest AM E, G, H:  7, 7, 4
    Onebody   basis highest AM E, G, H:  -, -, -
    Solid Harmonics ordering:            Gaussian

*** tstart() called on rclogin01.cluster
*** at Tue Dec 23 14:59:25 2025

   => Loading Basis Set <=

    Name: 6-31G**
    Role: ORBITAL
    Keyword: BASIS
    atoms 1 entry H          line    44 file /home/aelkamshishy/.conda/envs/p4env/share/psi4/basis/6-31gss.gbs 
    atoms 2 entry HE         line    54 file /home/aelkamshishy/.conda/envs/p4env/share/psi4/basis/6-31gss.gbs 


         ---------------------------------------------------------
                                   SCF
               by Justin Turney, Rob Parrish, Andy Simmonett
                          and Daniel G. A. Smith
                              RHF Reference
                        1 Threads,    953 MiB Core
         ---------------------------------------------------------

  ==> Geometry <==

    Molecular point group: c1
    Full point group: C_inf_v

    Geometry (in Angstrom), charge = 1, multiplicity = 1:

       Center              X                  Y                   Z               Mass       
    ------------   -----------------  -----------------  -----------------  -----------------
         H            0.000000000000     0.000000000000    -0.386000000000     1.007825032230
         HE           0.000000000000     0.000000000000     0.386000000000     4.002603254130

  Running in c1 symmetry.

  Rotational constants: A = ************  B =     22.58120  C =     22.58120 [cm^-1]
  Rotational constants: A = ************  B = 676967.37530  C = 676967.37530 [MHz]
  Nuclear repulsion =    1.370925416243523

  Charge       = 1
  Multiplicity = 1
  Electrons    = 2
  Nalpha       = 1
  Nbeta        = 1

  ==> Algorithm <==

  SCF Algorithm Type is PK.
  DIIS enabled.
  MOM disabled.
  Fractional occupation disabled.
  Guess Type is SAD.
  Energy threshold   = 1.00e-10
  Density threshold  = 1.00e-10
  Integral threshold = 1.00e-12

  ==> Primary Basis <==

  -AO BASIS SET INFORMATION:
    Name                   = 6-31G**
    Blend                  = 6-31G**
    Total number of shells = 6
    Number of primitives   = 10
    Number of AO           = 10
    Number of SO           = 10
    Maximum AM             = 1
    Spherical Harmonics    = FALSE

  -Contraction Scheme:
    Atom   Type   All Primitives // Shells:
   ------ ------ --------------------------
       1     H     4s 1p // 2s 1p 
       2    HE     4s 1p // 2s 1p 

  ==> Integral Setup <==

  Using in-core PK algorithm.
   Calculation information:
      Number of atoms:                   2
      Number of AO shells:               6
      Number of primitives:             10
      Number of atomic orbitals:        10
      Number of basis functions:        10

      Integral cutoff                 1.00e-12
      Number of threads:                 1

  Performing in-core PK
  Using 3080 doubles for integral storage.
  We computed 231 shell quartets total.
  Whereas there are 231 unique shell quartets.

  ==> DiskJK: Disk-Based J/K Matrices <==

    J tasked:                  Yes
    K tasked:                  Yes
    wK tasked:                  No
    Memory [MiB]:              715
    Schwarz Cutoff:          1E-12

    OpenMP threads:              1

  Minimum eigenvalue in the overlap matrix is 1.0863060819E-01.
  Reciprocal condition number of the overlap matrix is 3.8985222718E-02.
    Using symmetric orthogonalization.

  ==> Pre-Iterations <==

  SCF Guess: Superposition of Atomic Densities via on-the-fly atomic UHF (no occupation information).

   -------------------------
    Irrep   Nso     Nmo    
   -------------------------
     A         10      10 
   -------------------------
    Total      10      10
   -------------------------

  ==> Iterations <==

                        Total Energy        Delta E     RMS |[F,P]|

   @RHF iter SAD:    -3.67142567893151   -3.67143e+00   0.00000e+00 
   @RHF iter   1:    -2.88711868089769    7.84307e-01   2.59738e-02 DIIS/ADIIS
   @RHF iter   2:    -2.92403218251074   -3.69135e-02   3.39029e-03 DIIS/ADIIS
   @RHF iter   3:    -2.92471275235529   -6.80570e-04   2.42232e-04 DIIS/ADIIS
   @RHF iter   4:    -2.92471611103612   -3.35868e-06   9.72016e-06 DIIS
   @RHF iter   5:    -2.92471611634743   -5.31130e-09   5.78442e-07 DIIS
   @RHF iter   6:    -2.92471611637340   -2.59734e-11   6.07936e-08 DIIS
   @RHF iter   7:    -2.92471611637360   -1.98508e-13   2.72295e-10 DIIS
   @RHF iter   8:    -2.92471611637359    3.55271e-15   5.89200e-12 DIIS
  Energy and wave function converged.


  ==> Post-Iterations <==

    Orbital Energies [Eh]
    ---------------------

    Doubly Occupied:                                                      

       1A     -1.634369  

    Virtual:                                                              

       2A     -0.254625     3A      0.412726     4A      0.985402  
       5A      1.287762     6A      1.287762     7A      1.991302  
       8A      2.232065     9A      2.232065    10A      3.562490  

    Final Occupation by Irrep:
              A 
    DOCC [     1 ]
    NA   [     1 ]
    NB   [     1 ]

  @RHF Final Energy:    -2.92471611637359

   => Energetics <=

    Nuclear Repulsion Energy =              1.3709254162435234
    One-Electron Energy =                  -5.3225451148450977
    Two-Electron Energy =                   1.0269035822279797
    Total Energy =                         -2.9247161163735944

Computation Completed


Properties will be evaluated at   0.000000,   0.000000,   0.000000 [a0]

Properties computed using the SCF density matrix


 Multipole Moments:

 ------------------------------------------------------------------------------------
     Multipole            Electronic (a.u.)      Nuclear  (a.u.)        Total (a.u.)
 ------------------------------------------------------------------------------------

 L = 1.  Multiply by 2.5417464519 to convert [e a0] to [Debye]
 Dipole X            :          0.0000000            0.0000000            0.0000000
 Dipole Y            :          0.0000000            0.0000000            0.0000000
 Dipole Z            :         -1.0059091            0.7294343           -0.2764748
 Magnitude           :                                                    0.2764748

 ------------------------------------------------------------------------------------

*** tstop() called on rclogin01.cluster at Tue Dec 23 14:59:27 2025
Module time:
	user time   =       0.32 seconds =       0.01 minutes
	system time =       0.08 seconds =       0.00 minutes
	total time  =          2 seconds =       0.03 minutes
Total time:
	user time   =       0.32 seconds =       0.01 minutes
	system time =       0.08 seconds =       0.00 minutes
	total time  =          2 seconds =       0.03 minutes
 MINTS: Wrapper to libmints.
   by Justin Turney

   Calculation information:
      Number of threads:                 1
      Number of atoms:                   2
      Number of AO shells:               6
      Number of SO shells:               6
      Number of primitives:             10
      Number of atomic orbitals:        10
      Number of basis functions:        10

      Number of irreps:                  1
      Integral cutoff                 1.00e-12
      Number of functions per irrep: [  10 ]

 OEINTS: Overlap, kinetic, potential, dipole, and quadrupole integrals
         stored in file 35.

      Computing two-electron integrals...done
      Computed 512 non-zero two-electron integrals.
        Stored in file 33.


         ---------------------------------------------------------
                          Configuration Interaction
                            (a 'D E T C I' module)

                 C. David Sherrill, Daniel G. A. Smith, and
                              Matt L. Leininger
         ---------------------------------------------------------

DAVIDSON update not available for OLSEN or MITRUSH iterators

   ==> Parameters <==

    EX LEVEL       =        2      H0 BLOCKSIZE  =     1000
    VAL EX LEVEL   =        0      H0 GUESS SIZE =     1000
    H0COUPLINGSIZE =        0      H0 COUPLING   =       NO
    MAXITER        =       24      NUM PRINT     =       20
    NUM ROOTS      =      100      ICORE         =        1
    PRINT LVL      =        2      FCI           =      YES
    R CONV         = 1.00e-04      MIXED         =      YES
    E CONV         = 1.00e-08      MIXED4        =      YES
    R4S            =       NO      REPL OTF      =       NO
    DIAG METHOD    =      RSP      FOLLOW ROOT   =        0
    PRECONDITIONER = DAVIDSON      UPDATE        = OLSEN
    S              =   0.0000      Ms0           =       NO
    GUESS VECTOR   =  H0BLOCK      OPENTYPE      =     NONE
    COLLAPSE SIZE  =        1      HD AVG        = EVANGELISTI
    MAX NUM VECS   =        0      REF SYM       =     AUTO
    IOPEN        =       NO

    EX ALLOW       =  1  1 
    STATE AVERAGE  =  0(1.00) 

   ==> CI Orbital and Space information <==

   ------------------------------------
               Space    Total     A
   ------------------------------------
                 Nso       10    10
                 Nmo       10    10
               Ndocc        1     1
               Nsocc        0     0
   ------------------------------------
              CI Spaces
   ------------------------------------
        Dropped DOCC        0     0
              Active       10    10
        Dropped UOCC        0     0
   ------------------------------------

   ==> Setting up CI strings <==

    There are 10 alpha and 10 beta strings
    The CI space requires 100 (1.00E+02) determinants and 1 blocks
    Total H0block size (including coupling): 100

   ==> Transforming CI integrals <==

	Presorting SO-basis two-electron integrals.
	Sorting File: SO Ints (nn|nn) nbuckets = 1
	Constructing frozen core operators
	Starting first half-transformation.
	h = 0; memfree         = 124999800
	h = 0; rows_per_bucket = 55
	h = 0; rows_left       = 0
	h = 0; nbuckets        = 1
	Sorting half-transformed integrals.
	First half integral transformation complete.
	Starting second half-transformation.
	h = 0; memfree         = 124999800
	h = 0; rows_per_bucket = 55
	h = 0; rows_left       = 0
	h = 0; nbuckets        = 1
	Two-electron integral transformation complete.

   ==> Starting CI iterations <==

    Exact Diagonalization Algorithm

   ==> Energetics <==

    SCF energy =           -2.924716116373594
    Total CI energy =      -2.961198490529337

   ==> DETCI root 0 information <==

    DETCI Root 0 energy =    -2.961198490529337

   The 20 most important determinants:

    *   1   -0.994996  (    0,    0)  1AX 
    *   2    0.044284  (    1,    1)  2AX 
    *   3    0.038495  (    3,    3)  4AX 
    *   4    0.029789  (    3,    1)  2AB 4AA 
    *   5    0.029789  (    1,    3)  2AA 4AB 
    *   6    0.025931  (    5,    5)  6AX 
    *   7    0.025931  (    4,    4)  5AX 
    *   8    0.021654  (    2,    2)  3AX 
    *   9    0.018012  (    6,    6)  7AX 
    *  10    0.017543  (    2,    1)  2AB 3AA 
    *  11    0.017543  (    1,    2)  2AA 3AB 
    *  12   -0.015725  (    6,    1)  2AB 7AA 
    *  13   -0.015725  (    1,    6)  2AA 7AB 
    *  14   -0.013620  (    2,    6)  3AA 7AB 
    *  15   -0.013620  (    6,    2)  3AB 7AA 
    *  16    0.010409  (    9,    3)  4AB 10AA 
    *  17    0.010409  (    3,    9)  4AA 10AB 
    *  18    0.008496  (    8,    8)  9AX 
    *  19    0.008496  (    7,    7)  8AX 
    *  20   -0.008204  (    4,    7)  5AA 8AB 


   ==> DETCI root 1 information <==

    DETCI Root 1 energy =    -2.158038137859057

   The 20 most important determinants:

    *   1   -0.681277  (    0,    1)  1AA 2AB 
    *   2    0.681277  (    1,    0)  1AB 2AA 
    *   3   -0.145503  (    0,    2)  1AA 3AB 
    *   4    0.145503  (    2,    0)  1AB 3AA 
    *   5    0.092337  (    3,    0)  1AB 4AA 
    *   6   -0.092337  (    0,    3)  1AA 4AB 
    *   7    0.059827  (    3,    1)  2AB 4AA 
    *   8   -0.059827  (    1,    3)  2AA 4AB 
    *   9    0.039302  (    0,    6)  1AA 7AB 
    *  10   -0.039302  (    6,    0)  1AB 7AA 
    *  11   -0.019897  (    6,    1)  2AB 7AA 
    *  12    0.019897  (    1,    6)  2AA 7AB 
    *  13   -0.011999  (    0,    9)  1AA 10AB 
    *  14    0.011999  (    9,    0)  1AB 10AA 
    *  15    0.011770  (    1,    2)  2AA 3AB 
    *  16   -0.011770  (    2,    1)  2AB 3AA 
    *  17    0.010073  (    9,    1)  2AB 10AA 
    *  18   -0.010073  (    1,    9)  2AA 10AB 
    *  19   -0.009816  (    6,    2)  3AB 7AA 
    *  20    0.009816  (    2,    6)  3AA 7AB 


   ==> DETCI root 2 information <==

    DETCI Root 2 energy =    -1.981822119438680

   The 20 most important determinants:

    *   1    0.684332  (    1,    0)  1AB 2AA 
    *   2    0.684332  (    0,    1)  1AA 2AB 
    *   3   -0.183672  (    1,    1)  2AX 
    *   4    0.082710  (    0,    2)  1AA 3AB 
    *   5    0.082710  (    2,    0)  1AB 3AA 
    *   6   -0.072056  (    1,    3)  2AA 4AB 
    *   7   -0.072056  (    3,    1)  2AB 4AA 
    *   8    0.023939  (    3,    3)  4AX 
    *   9   -0.023347  (    2,    1)  2AB 3AA 
    *  10   -0.023347  (    1,    2)  2AA 3AB 
    *  11   -0.023117  (    0,    0)  1AX 
    *  12   -0.020368  (    2,    2)  3AX 
    *  13   -0.017811  (    9,    1)  2AB 10AA 
    *  14   -0.017811  (    1,    9)  2AA 10AB 
    *  15   -0.014597  (    3,    2)  3AB 4AA 
    *  16   -0.014597  (    2,    3)  3AA 4AB 
    *  17    0.012610  (    0,    6)  1AA 7AB 
    *  18    0.012610  (    6,    0)  1AB 7AA 
    *  19   -0.011520  (    7,    4)  5AB 8AA 
    *  20    0.011520  (    5,    8)  6AA 9AB 


   ==> DETCI root 3 information <==

    DETCI Root 3 energy =    -1.482094065486781

   The 20 most important determinants:

    *   1   -0.679086  (    0,    2)  1AA 3AB 
    *   2    0.679086  (    2,    0)  1AB 3AA 
    *   3    0.133830  (    0,    1)  1AA 2AB 
    *   4   -0.133830  (    1,    0)  1AB 2AA 
    *   5   -0.096888  (    3,    0)  1AB 4AA 
    *   6    0.096888  (    0,    3)  1AA 4AB 
    *   7    0.069208  (    1,    2)  2AA 3AB 
    *   8   -0.069208  (    2,    1)  2AB 3AA 
    *   9    0.058953  (    3,    2)  3AB 4AA 
    *  10   -0.058953  (    2,    3)  3AA 4AB 
    *  11    0.045514  (    0,    6)  1AA 7AB 
    *  12   -0.045514  (    6,    0)  1AB 7AA 
    *  13   -0.027848  (    3,    1)  2AB 4AA 
    *  14    0.027848  (    1,    3)  2AA 4AB 
    *  15    0.013556  (    2,    6)  3AA 7AB 
    *  16   -0.013556  (    6,    2)  3AB 7AA 
    *  17    0.008745  (    1,    9)  2AA 10AB 
    *  18   -0.008745  (    9,    1)  2AB 10AA 
    *  19    0.008532  (    9,    2)  3AB 10AA 
    *  20   -0.008532  (    2,    9)  3AA 10AB 


   ==> DETCI root 4 information <==

    DETCI Root 4 energy =    -1.383663282713893

   The 20 most important determinants:

    *   1    0.684392  (    2,    0)  1AB 3AA 
    *   2    0.684392  (    0,    2)  1AA 3AB 
    *   3   -0.116903  (    2,    1)  2AB 3AA 
    *   4   -0.116903  (    1,    2)  2AA 3AB 
    *   5   -0.091335  (    1,    0)  1AB 2AA 
    *   6   -0.091335  (    0,    1)  1AA 2AB 
    *   7   -0.086936  (    2,    3)  3AA 4AB 
    *   8   -0.086936  (    3,    2)  3AB 4AA 
    *   9   -0.028369  (    2,    2)  3AX 
    *  10   -0.023063  (    2,    9)  3AA 10AB 
    *  11   -0.023063  (    9,    2)  3AB 10AA 
    *  12    0.020032  (    2,    6)  3AA 7AB 
    *  13    0.020032  (    6,    2)  3AB 7AA 
    *  14   -0.013006  (    3,    0)  1AB 4AA 
    *  15   -0.013006  (    0,    3)  1AA 4AB 
    *  16    0.011819  (    9,    0)  1AB 10AA 
    *  17    0.011819  (    0,    9)  1AA 10AB 
    *  18   -0.009319  (    0,    0)  1AX 
    *  19   -0.008659  (    9,    1)  2AB 10AA 
    *  20   -0.008659  (    1,    9)  2AA 10AB 


   ==> DETCI root 5 information <==

    DETCI Root 5 energy =    -1.048257769091262

   The 20 most important determinants:

    *   1   -0.688893  (    3,    0)  1AB 4AA 
    *   2    0.688893  (    0,    3)  1AA 4AB 
    *   3    0.104946  (    1,    0)  1AB 2AA 
    *   4   -0.104946  (    0,    1)  1AA 2AB 
    *   5   -0.074063  (    1,    3)  2AA 4AB 
    *   6    0.074063  (    3,    1)  2AB 4AA 
    *   7    0.067711  (    0,    2)  1AA 3AB 
    *   8   -0.067711  (    2,    0)  1AB 3AA 
    *   9   -0.038592  (    9,    0)  1AB 10AA 
    *  10    0.038592  (    0,    9)  1AA 10AB 
    *  11   -0.037678  (    0,    6)  1AA 7AB 
    *  12    0.037678  (    6,    0)  1AB 7AA 
    *  13    0.027062  (    2,    3)  3AA 4AB 
    *  14   -0.027062  (    3,    2)  3AB 4AA 
    *  15    0.018706  (    2,    1)  2AB 3AA 
    *  16   -0.018706  (    1,    2)  2AA 3AB 
    *  17   -0.013575  (    9,    3)  4AB 10AA 
    *  18    0.013575  (    3,    9)  4AA 10AB 
    *  19   -0.010965  (    2,    6)  3AA 7AB 
    *  20    0.010965  (    6,    2)  3AB 7AA 


   ==> DETCI root 6 information <==

    DETCI Root 6 energy =    -0.848418584765875

   The 20 most important determinants:

    *   1   -0.696261  (    4,    0)  1AB 5AA 
    *   2    0.696261  (    0,    4)  1AA 5AB 
    *   3    0.066673  (    7,    0)  1AB 8AA 
    *   4   -0.066673  (    0,    7)  1AA 8AB 
    *   5    0.063697  (    0,    5)  1AA 6AB 
    *   6   -0.063697  (    5,    0)  1AB 6AA 
    *   7    0.052665  (    4,    1)  2AB 5AA 
    *   8   -0.052665  (    1,    4)  2AA 5AB 
    *   9    0.042239  (    4,    3)  4AB 5AA 
    *  10   -0.042239  (    3,    4)  4AA 5AB 
    *  11   -0.038482  (    0,    8)  1AA 9AB 
    *  12    0.038482  (    8,    0)  1AB 9AA 
    *  13    0.012985  (    7,    1)  2AB 8AA 
    *  14   -0.012985  (    1,    7)  2AA 8AB 
    *  15    0.009618  (    7,    2)  3AB 8AA 
    *  16   -0.009618  (    2,    7)  3AA 8AB 
    *  17    0.008993  (    4,    9)  5AA 10AB 
    *  18   -0.008993  (    9,    4)  5AB 10AA 
    *  19   -0.007736  (    7,    6)  7AB 8AA 
    *  20    0.007736  (    6,    7)  7AA 8AB 


   ==> DETCI root 7 information <==

    DETCI Root 7 energy =    -0.848418584765874

   The 20 most important determinants:

    *   1   -0.696261  (    0,    5)  1AA 6AB 
    *   2    0.696261  (    5,    0)  1AB 6AA 
    *   3    0.066673  (    8,    0)  1AB 9AA 
    *   4   -0.066673  (    0,    8)  1AA 9AB 
    *   5   -0.063697  (    4,    0)  1AB 5AA 
    *   6    0.063697  (    0,    4)  1AA 5AB 
    *   7    0.052665  (    1,    5)  2AA 6AB 
    *   8   -0.052665  (    5,    1)  2AB 6AA 
    *   9    0.042239  (    3,    5)  4AA 6AB 
    *  10   -0.042239  (    5,    3)  4AB 6AA 
    *  11   -0.038482  (    7,    0)  1AB 8AA 
    *  12    0.038482  (    0,    7)  1AA 8AB 
    *  13   -0.012985  (    1,    8)  2AA 9AB 
    *  14    0.012985  (    8,    1)  2AB 9AA 
    *  15   -0.009618  (    2,    8)  3AA 9AB 
    *  16    0.009618  (    8,    2)  3AB 9AA 
    *  17   -0.008993  (    5,    9)  6AA 10AB 
    *  18    0.008993  (    9,    5)  6AB 10AA 
    *  19   -0.007736  (    8,    6)  7AB 9AA 
    *  20    0.007736  (    6,    8)  7AA 9AB 


   ==> DETCI root 8 information <==

    DETCI Root 8 energy =    -0.757638121290813

   The 20 most important determinants:

    *   1    0.695715  (    0,    3)  1AA 4AB 
    *   2    0.695715  (    3,    0)  1AB 4AA 
    *   3    0.103361  (    1,    1)  2AX 
    *   4   -0.060836  (    2,    2)  3AX 
    *   5   -0.058796  (    1,    2)  2AA 3AB 
    *   6   -0.058796  (    2,    1)  2AB 3AA 
    *   7   -0.058355  (    3,    3)  4AX 
    *   8    0.035509  (    3,    1)  2AB 4AA 
    *   9    0.035509  (    1,    3)  2AA 4AB 
    *  10   -0.024670  (    6,    1)  2AB 7AA 
    *  11   -0.024670  (    1,    6)  2AA 7AB 
    *  12    0.023430  (    0,    1)  1AA 2AB 
    *  13    0.023430  (    1,    0)  1AB 2AA 
    *  14   -0.018769  (    3,    6)  4AA 7AB 
    *  15   -0.018769  (    6,    3)  4AB 7AA 
    *  16    0.015608  (    1,    9)  2AA 10AB 
    *  17    0.015608  (    9,    1)  2AB 10AA 
    *  18    0.013827  (    3,    2)  3AB 4AA 
    *  19    0.013827  (    2,    3)  3AA 4AB 
    *  20    0.013551  (    6,    6)  7AX 


   ==> DETCI root 9 information <==

    DETCI Root 9 energy =    -0.685178969736535

   The 20 most important determinants:

    *   1   -0.893788  (    1,    1)  2AX 
    *   2   -0.197478  (    2,    1)  2AB 3AA 
    *   3   -0.197478  (    1,    2)  2AA 3AB 
    *   4   -0.131939  (    0,    1)  1AA 2AB 
    *   5   -0.131939  (    1,    0)  1AB 2AA 
    *   6    0.111136  (    6,    1)  2AB 7AA 
    *   7    0.111136  (    1,    6)  2AA 7AB 
    *   8   -0.103123  (    3,    1)  2AB 4AA 
    *   9   -0.103123  (    1,    3)  2AA 4AB 
    *  10    0.099407  (    0,    6)  1AA 7AB 
    *  11    0.099407  (    6,    0)  1AB 7AA 
    *  12    0.065405  (    3,    0)  1AB 4AA 
    *  13    0.065405  (    0,    3)  1AA 4AB 
    *  14   -0.055705  (    2,    0)  1AB 3AA 
    *  15   -0.055705  (    0,    2)  1AA 3AB 
    *  16   -0.052978  (    0,    0)  1AX 
    *  17    0.032802  (    2,    2)  3AX 
    *  18    0.022320  (    4,    4)  5AX 
    *  19    0.022320  (    5,    5)  6AX 
    *  20    0.021438  (    6,    6)  7AX 


   ==> DETCI root 10 information <==

    DETCI Root 10 energy =    -0.600306798910181

   The 20 most important determinants:

    *   1   -0.614288  (    0,    4)  1AA 5AB 
    *   2   -0.614288  (    4,    0)  1AB 5AA 
    *   3    0.332336  (    5,    0)  1AB 6AA 
    *   4    0.332336  (    0,    5)  1AA 6AB 
    *   5    0.061653  (    1,    4)  2AA 5AB 
    *   6    0.061653  (    4,    1)  2AB 5AA 
    *   7    0.053225  (    3,    4)  4AA 5AB 
    *   8    0.053225  (    4,    3)  4AB 5AA 
    *   9    0.036545  (    8,    1)  2AB 9AA 
    *  10    0.036545  (    1,    8)  2AA 9AB 
    *  11   -0.033355  (    1,    5)  2AA 6AB 
    *  12   -0.033355  (    5,    1)  2AB 6AA 
    *  13   -0.028795  (    3,    5)  4AA 6AB 
    *  14   -0.028795  (    5,    3)  4AB 6AA 
    *  15   -0.022137  (    4,    6)  5AA 7AB 
    *  16   -0.022137  (    6,    4)  5AB 7AA 
    *  17    0.020519  (    2,    8)  3AA 9AB 
    *  18    0.020519  (    8,    2)  3AB 9AA 
    *  19    0.018115  (    1,    7)  2AA 8AB 
    *  20    0.018115  (    7,    1)  2AB 8AA 


   ==> DETCI root 11 information <==

    DETCI Root 11 energy =    -0.600306798910177

   The 20 most important determinants:

    *   1   -0.614288  (    5,    0)  1AB 6AA 
    *   2   -0.614288  (    0,    5)  1AA 6AB 
    *   3   -0.332336  (    0,    4)  1AA 5AB 
    *   4   -0.332336  (    4,    0)  1AB 5AA 
    *   5    0.061653  (    5,    1)  2AB 6AA 
    *   6    0.061653  (    1,    5)  2AA 6AB 
    *   7    0.053225  (    5,    3)  4AB 6AA 
    *   8    0.053225  (    3,    5)  4AA 6AB 
    *   9    0.036545  (    1,    7)  2AA 8AB 
    *  10    0.036545  (    7,    1)  2AB 8AA 
    *  11    0.033355  (    1,    4)  2AA 5AB 
    *  12    0.033355  (    4,    1)  2AB 5AA 
    *  13    0.028795  (    3,    4)  4AA 5AB 
    *  14    0.028795  (    4,    3)  4AB 5AA 
    *  15   -0.022137  (    6,    5)  6AB 7AA 
    *  16   -0.022137  (    5,    6)  6AA 7AB 
    *  17    0.020519  (    2,    7)  3AA 8AB 
    *  18    0.020519  (    7,    2)  3AB 8AA 
    *  19   -0.018115  (    8,    1)  2AB 9AA 
    *  20   -0.018115  (    1,    8)  2AA 9AB 


   ==> DETCI root 12 information <==

    DETCI Root 12 energy =    -0.196816356344218

   The 20 most important determinants:

    *   1   -0.631742  (    1,    2)  2AA 3AB 
    *   2    0.631742  (    2,    1)  2AB 3AA 
    *   3   -0.189260  (    3,    1)  2AB 4AA 
    *   4    0.189260  (    1,    3)  2AA 4AB 
    *   5    0.187845  (    0,    6)  1AA 7AB 
    *   6   -0.187845  (    6,    0)  1AB 7AA 
    *   7   -0.139852  (    3,    2)  3AB 4AA 
    *   8    0.139852  (    2,    3)  3AA 4AB 
    *   9   -0.057030  (    0,    2)  1AA 3AB 
    *  10    0.057030  (    2,    0)  1AB 3AA 
    *  11    0.053894  (    6,    2)  3AB 7AA 
    *  12   -0.053894  (    2,    6)  3AA 7AB 
    *  13    0.052882  (    1,    6)  2AA 7AB 
    *  14   -0.052882  (    6,    1)  2AB 7AA 
    *  15    0.020978  (    2,    9)  3AA 10AB 
    *  16   -0.020978  (    9,    2)  3AB 10AA 
    *  17    0.019001  (    1,    9)  2AA 10AB 
    *  18   -0.019001  (    9,    1)  2AB 10AA 
    *  19    0.014251  (    0,    9)  1AA 10AB 
    *  20   -0.014251  (    9,    0)  1AB 10AA 


   ==> DETCI root 13 information <==

    DETCI Root 13 energy =    -0.130104965066113

   The 20 most important determinants:

    *   1    0.668689  (    0,    6)  1AA 7AB 
    *   2   -0.668689  (    6,    0)  1AB 7AA 
    *   3   -0.177426  (    2,    1)  2AB 3AA 
    *   4    0.177426  (    1,    2)  2AA 3AB 
    *   5   -0.100392  (    1,    6)  2AA 7AB 
    *   6    0.100392  (    6,    1)  2AB 7AA 
    *   7   -0.071011  (    2,    0)  1AB 3AA 
    *   8    0.071011  (    0,    2)  1AA 3AB 
    *   9   -0.053989  (    3,    6)  4AA 7AB 
    *  10    0.053989  (    6,    3)  4AB 7AA 
    *  11    0.032739  (    0,    3)  1AA 4AB 
    *  12   -0.032739  (    3,    0)  1AB 4AA 
    *  13   -0.031205  (    9,    0)  1AB 10AA 
    *  14    0.031205  (    0,    9)  1AA 10AB 
    *  15   -0.023344  (    1,    3)  2AA 4AB 
    *  16    0.023344  (    3,    1)  2AB 4AA 
    *  17   -0.019958  (    1,    0)  1AB 2AA 
    *  18    0.019958  (    0,    1)  1AA 2AB 
    *  19   -0.011687  (    9,    1)  2AB 10AA 
    *  20    0.011687  (    1,    9)  2AA 10AB 


   ==> DETCI root 14 information <==

    DETCI Root 14 energy =    -0.061339664655787

   The 20 most important determinants:

    *   1    0.539005  (    1,    2)  2AA 3AB 
    *   2    0.539005  (    2,    1)  2AB 3AA 
    *   3   -0.364333  (    3,    1)  2AB 4AA 
    *   4   -0.364333  (    1,    3)  2AA 4AB 
    *   5    0.255712  (    2,    2)  3AX 
    *   6   -0.145574  (    1,    1)  2AX 
    *   7   -0.108818  (    3,    3)  4AX 
    *   8    0.091200  (    0,    2)  1AA 3AB 
    *   9    0.091200  (    2,    0)  1AB 3AA 
    *  10    0.081483  (    3,    0)  1AB 4AA 
    *  11    0.081483  (    0,    3)  1AA 4AB 
    *  12   -0.059898  (    6,    2)  3AB 7AA 
    *  13   -0.059898  (    2,    6)  3AA 7AB 
    *  14   -0.052807  (    9,    0)  1AB 10AA 
    *  15   -0.052807  (    0,    9)  1AA 10AB 
    *  16   -0.049974  (    1,    6)  2AA 7AB 
    *  17   -0.049974  (    6,    1)  2AB 7AA 
    *  18   -0.045454  (    0,    1)  1AA 2AB 
    *  19   -0.045454  (    1,    0)  1AB 2AA 
    *  20   -0.031621  (    9,    1)  2AB 10AA 


   ==> DETCI root 15 information <==

    DETCI Root 15 energy =     0.069422635579805

   The 20 most important determinants:

    *   1   -0.659502  (    6,    0)  1AB 7AA 
    *   2   -0.659502  (    0,    6)  1AA 7AB 
    *   3   -0.202620  (    1,    1)  2AX 
    *   4    0.143404  (    3,    1)  2AB 4AA 
    *   5    0.143404  (    1,    3)  2AA 4AB 
    *   6    0.094476  (    3,    2)  3AB 4AA 
    *   7    0.094476  (    2,    3)  3AA 4AB 
    *   8    0.080266  (    3,    3)  4AX 
    *   9    0.074724  (    2,    1)  2AB 3AA 
    *  10    0.074724  (    1,    2)  2AA 3AB 
    *  11    0.045492  (    1,    6)  2AA 7AB 
    *  12    0.045492  (    6,    1)  2AB 7AA 
    *  13    0.032055  (    2,    2)  3AX 
    *  14    0.028946  (    2,    0)  1AB 3AA 
    *  15    0.028946  (    0,    2)  1AA 3AB 
    *  16   -0.027113  (    5,    5)  6AX 
    *  17   -0.027113  (    4,    4)  5AX 
    *  18    0.021148  (    3,    0)  1AB 4AA 
    *  19    0.021148  (    0,    3)  1AA 4AB 
    *  20    0.020951  (    6,    9)  7AA 10AB 


   ==> DETCI root 16 information <==

    DETCI Root 16 energy =     0.173174518633342

   The 20 most important determinants:

    *   1   -0.652281  (    7,    0)  1AB 8AA 
    *   2    0.652281  (    0,    7)  1AA 8AB 
    *   3   -0.201294  (    8,    0)  1AB 9AA 
    *   4    0.201294  (    0,    8)  1AA 9AB 
    *   5    0.133246  (    4,    1)  2AB 5AA 
    *   6   -0.133246  (    1,    4)  2AA 5AB 
    *   7    0.056170  (    0,    4)  1AA 5AB 
    *   8   -0.056170  (    4,    0)  1AB 5AA 
    *   9    0.053391  (    7,    3)  4AB 8AA 
    *  10   -0.053391  (    3,    7)  4AA 8AB 
    *  11   -0.052940  (    1,    7)  2AA 8AB 
    *  12    0.052940  (    7,    1)  2AB 8AA 
    *  13    0.045388  (    4,    3)  4AB 5AA 
    *  14   -0.045388  (    3,    4)  4AA 5AB 
    *  15   -0.043473  (    1,    5)  2AA 6AB 
    *  16    0.043473  (    5,    1)  2AB 6AA 
    *  17    0.034696  (    4,    2)  3AB 5AA 
    *  18   -0.034696  (    2,    4)  3AA 5AB 
    *  19   -0.024150  (    4,    6)  5AA 7AB 
    *  20    0.024150  (    6,    4)  5AB 7AA 


   ==> DETCI root 17 information <==

    DETCI Root 17 energy =     0.173174518633347

   The 20 most important determinants:

    *   1   -0.652281  (    8,    0)  1AB 9AA 
    *   2    0.652281  (    0,    8)  1AA 9AB 
    *   3    0.201294  (    7,    0)  1AB 8AA 
    *   4   -0.201294  (    0,    7)  1AA 8AB 
    *   5   -0.133246  (    5,    1)  2AB 6AA 
    *   6    0.133246  (    1,    5)  2AA 6AB 
    *   7   -0.056170  (    0,    5)  1AA 6AB 
    *   8    0.056170  (    5,    0)  1AB 6AA 
    *   9    0.053391  (    8,    3)  4AB 9AA 
    *  10   -0.053391  (    3,    8)  4AA 9AB 
    *  11   -0.052940  (    1,    8)  2AA 9AB 
    *  12    0.052940  (    8,    1)  2AB 9AA 
    *  13   -0.045388  (    5,    3)  4AB 6AA 
    *  14    0.045388  (    3,    5)  4AA 6AB 
    *  15    0.043473  (    4,    1)  2AB 5AA 
    *  16   -0.043473  (    1,    4)  2AA 5AB 
    *  17   -0.034696  (    5,    2)  3AB 6AA 
    *  18    0.034696  (    2,    5)  3AA 6AB 
    *  19    0.024150  (    5,    6)  6AA 7AB 
    *  20   -0.024150  (    6,    5)  6AB 7AA 


   ==> DETCI root 18 information <==

    DETCI Root 18 energy =     0.173742090741527

   The 20 most important determinants:

    *   1   -0.641218  (    1,    3)  2AA 4AB 
    *   2    0.641218  (    3,    1)  2AB 4AA 
    *   3    0.203434  (    2,    1)  2AB 3AA 
    *   4   -0.203434  (    1,    2)  2AA 3AB 
    *   5   -0.151869  (    2,    3)  3AA 4AB 
    *   6    0.151869  (    3,    2)  3AB 4AA 
    *   7   -0.095671  (    6,    1)  2AB 7AA 
    *   8    0.095671  (    1,    6)  2AA 7AB 
    *   9   -0.071921  (    1,    0)  1AB 2AA 
    *  10    0.071921  (    0,    1)  1AA 2AB 
    *  11    0.052774  (    3,    0)  1AB 4AA 
    *  12   -0.052774  (    0,    3)  1AA 4AB 
    *  13   -0.050249  (    1,    9)  2AA 10AB 
    *  14    0.050249  (    9,    1)  2AB 10AA 
    *  15    0.045364  (    0,    6)  1AA 7AB 
    *  16   -0.045364  (    6,    0)  1AB 7AA 
    *  17   -0.037426  (    3,    6)  4AA 7AB 
    *  18    0.037426  (    6,    3)  4AB 7AA 
    *  19    0.025374  (    2,    0)  1AB 3AA 
    *  20   -0.025374  (    0,    2)  1AA 3AB 


   ==> DETCI root 19 information <==

    DETCI Root 19 energy =     0.175137577554958

   The 20 most important determinants:

    *   1    0.504085  (    0,    7)  1AA 8AB 
    *   2    0.504085  (    7,    0)  1AB 8AA 
    *   3   -0.342222  (    1,    5)  2AA 6AB 
    *   4   -0.342222  (    5,    1)  2AB 6AA 
    *   5   -0.277264  (    0,    8)  1AA 9AB 
    *   6   -0.277264  (    8,    0)  1AB 9AA 
    *   7   -0.166676  (    4,    1)  2AB 5AA 
    *   8   -0.166676  (    1,    4)  2AA 5AB 
    *   9   -0.101872  (    2,    5)  3AA 6AB 
    *  10   -0.101872  (    5,    2)  3AB 6AA 
    *  11   -0.051787  (    3,    5)  4AA 6AB 
    *  12   -0.051787  (    5,    3)  4AB 6AA 
    *  13   -0.049616  (    4,    2)  3AB 5AA 
    *  14   -0.049616  (    2,    4)  3AA 5AB 
    *  15   -0.048944  (    5,    0)  1AB 6AA 
    *  16   -0.048944  (    0,    5)  1AA 6AB 
    *  17    0.035619  (    7,    1)  2AB 8AA 
    *  18    0.035619  (    1,    7)  2AA 8AB 
    *  19    0.029889  (    6,    5)  6AB 7AA 
    *  20    0.029889  (    5,    6)  6AA 7AB 


   ==> DETCI root 20 information <==

    DETCI Root 20 energy =     0.175137577554960

   The 20 most important determinants:

    *   1    0.504085  (    0,    8)  1AA 9AB 
    *   2    0.504085  (    8,    0)  1AB 9AA 
    *   3   -0.342222  (    1,    4)  2AA 5AB 
    *   4   -0.342222  (    4,    1)  2AB 5AA 
    *   5    0.277264  (    0,    7)  1AA 8AB 
    *   6    0.277264  (    7,    0)  1AB 8AA 
    *   7    0.166676  (    1,    5)  2AA 6AB 
    *   8    0.166676  (    5,    1)  2AB 6AA 
    *   9   -0.101872  (    2,    4)  3AA 5AB 
    *  10   -0.101872  (    4,    2)  3AB 5AA 
    *  11   -0.051787  (    3,    4)  4AA 5AB 
    *  12   -0.051787  (    4,    3)  4AB 5AA 
    *  13    0.049616  (    2,    5)  3AA 6AB 
    *  14    0.049616  (    5,    2)  3AB 6AA 
    *  15   -0.048944  (    4,    0)  1AB 5AA 
    *  16   -0.048944  (    0,    4)  1AA 5AB 
    *  17    0.035619  (    8,    1)  2AB 9AA 
    *  18    0.035619  (    1,    8)  2AA 9AB 
    *  19    0.029889  (    6,    4)  5AB 7AA 
    *  20    0.029889  (    4,    6)  5AA 7AB 


   ==> DETCI root 21 information <==

    DETCI Root 21 energy =     0.342836294383047

   The 20 most important determinants:

    *   1    0.637722  (    1,    4)  2AA 5AB 
    *   2   -0.637722  (    4,    1)  2AB 5AA 
    *   3    0.132886  (    5,    1)  2AB 6AA 
    *   4   -0.132886  (    1,    5)  2AA 6AB 
    *   5    0.132548  (    2,    4)  3AA 5AB 
    *   6   -0.132548  (    4,    2)  3AB 5AA 
    *   7    0.124577  (    8,    1)  2AB 9AA 
    *   8   -0.124577  (    1,    8)  2AA 9AB 
    *   9    0.116209  (    7,    1)  2AB 8AA 
    *  10   -0.116209  (    1,    7)  2AA 8AB 
    *  11   -0.091879  (    8,    0)  1AB 9AA 
    *  12    0.091879  (    0,    8)  1AA 9AB 
    *  13   -0.085707  (    7,    0)  1AB 8AA 
    *  14    0.085707  (    0,    7)  1AA 8AB 
    *  15    0.065668  (    3,    4)  4AA 5AB 
    *  16   -0.065668  (    4,    3)  4AB 5AA 
    *  17    0.062189  (    0,    4)  1AA 5AB 
    *  18   -0.062189  (    4,    0)  1AB 5AA 
    *  19   -0.038909  (    6,    4)  5AB 7AA 
    *  20    0.038909  (    4,    6)  5AA 7AB 


   ==> DETCI root 22 information <==

    DETCI Root 22 energy =     0.342836294383047

   The 20 most important determinants:

    *   1    0.637722  (    1,    5)  2AA 6AB 
    *   2   -0.637722  (    5,    1)  2AB 6AA 
    *   3   -0.132886  (    4,    1)  2AB 5AA 
    *   4    0.132886  (    1,    4)  2AA 5AB 
    *   5    0.132548  (    2,    5)  3AA 6AB 
    *   6   -0.132548  (    5,    2)  3AB 6AA 
    *   7    0.124577  (    7,    1)  2AB 8AA 
    *   8   -0.124577  (    1,    7)  2AA 8AB 
    *   9    0.116209  (    1,    8)  2AA 9AB 
    *  10   -0.116209  (    8,    1)  2AB 9AA 
    *  11   -0.091879  (    7,    0)  1AB 8AA 
    *  12    0.091879  (    0,    7)  1AA 8AB 
    *  13    0.085707  (    8,    0)  1AB 9AA 
    *  14   -0.085707  (    0,    8)  1AA 9AB 
    *  15    0.065668  (    3,    5)  4AA 6AB 
    *  16   -0.065668  (    5,    3)  4AB 6AA 
    *  17    0.062189  (    0,    5)  1AA 6AB 
    *  18   -0.062189  (    5,    0)  1AB 6AA 
    *  19    0.038909  (    5,    6)  6AA 7AB 
    *  20   -0.038909  (    6,    5)  6AB 7AA 


   ==> DETCI root 23 information <==

    DETCI Root 23 energy =     0.393374687255034

   The 20 most important determinants:

    *   1    0.523832  (    1,    3)  2AA 4AB 
    *   2    0.523832  (    3,    1)  2AB 4AA 
    *   3    0.259892  (    2,    1)  2AB 3AA 
    *   4    0.259892  (    1,    2)  2AA 3AB 
    *   5   -0.233201  (    1,    1)  2AX 
    *   6    0.211417  (    0,    6)  1AA 7AB 
    *   7    0.211417  (    6,    0)  1AB 7AA 
    *   8    0.174152  (    2,    2)  3AX 
    *   9    0.171380  (    2,    3)  3AA 4AB 
    *  10    0.171380  (    3,    2)  3AB 4AA 
    *  11    0.118961  (    3,    3)  4AX 
    *  12   -0.111178  (    1,    6)  2AA 7AB 
    *  13   -0.111178  (    6,    1)  2AB 7AA 
    *  14   -0.096878  (    2,    6)  3AA 7AB 
    *  15   -0.096878  (    6,    2)  3AB 7AA 
    *  16    0.075318  (    0,    2)  1AA 3AB 
    *  17    0.075318  (    2,    0)  1AB 3AA 
    *  18   -0.060844  (    3,    6)  4AA 7AB 
    *  19   -0.060844  (    6,    3)  4AB 7AA 
    *  20    0.042927  (    0,    0)  1AX 


   ==> DETCI root 24 information <==

    DETCI Root 24 energy =     0.513443699051843

   The 20 most important determinants:

    *   1    0.530571  (    1,    4)  2AA 5AB 
    *   2    0.530571  (    4,    1)  2AB 5AA 
    *   3    0.358151  (    0,    7)  1AA 8AB 
    *   4    0.358151  (    7,    0)  1AB 8AA 
    *   5   -0.198828  (    1,    7)  2AA 8AB 
    *   6   -0.198828  (    7,    1)  2AB 8AA 
    *   7    0.143251  (    0,    8)  1AA 9AB 
    *   8    0.143251  (    8,    0)  1AB 9AA 
    *   9    0.126592  (    1,    5)  2AA 6AB 
    *  10    0.126592  (    5,    1)  2AB 6AA 
    *  11   -0.079526  (    1,    8)  2AA 9AB 
    *  12   -0.079526  (    8,    1)  2AB 9AA 
    *  13   -0.057394  (    3,    7)  4AA 8AB 
    *  14   -0.057394  (    7,    3)  4AB 8AA 
    *  15    0.034892  (    0,    4)  1AA 5AB 
    *  16    0.034892  (    4,    0)  1AB 5AA 
    *  17    0.030171  (    3,    4)  4AA 5AB 
    *  18    0.030171  (    4,    3)  4AB 5AA 
    *  19   -0.027355  (    2,    7)  3AA 8AB 
    *  20   -0.027355  (    7,    2)  3AB 8AA 


   ==> DETCI root 25 information <==

    DETCI Root 25 energy =     0.513443699051847

   The 20 most important determinants:

    *   1    0.530571  (    5,    1)  2AB 6AA 
    *   2    0.530571  (    1,    5)  2AA 6AB 
    *   3   -0.358151  (    0,    8)  1AA 9AB 
    *   4   -0.358151  (    8,    0)  1AB 9AA 
    *   5    0.198828  (    1,    8)  2AA 9AB 
    *   6    0.198828  (    8,    1)  2AB 9AA 
    *   7    0.143251  (    7,    0)  1AB 8AA 
    *   8    0.143251  (    0,    7)  1AA 8AB 
    *   9   -0.126592  (    1,    4)  2AA 5AB 
    *  10   -0.126592  (    4,    1)  2AB 5AA 
    *  11   -0.079526  (    7,    1)  2AB 8AA 
    *  12   -0.079526  (    1,    7)  2AA 8AB 
    *  13    0.057394  (    3,    8)  4AA 9AB 
    *  14    0.057394  (    8,    3)  4AB 9AA 
    *  15    0.034892  (    5,    0)  1AB 6AA 
    *  16    0.034892  (    0,    5)  1AA 6AB 
    *  17    0.030171  (    5,    3)  4AB 6AA 
    *  18    0.030171  (    3,    5)  4AA 6AB 
    *  19    0.027355  (    8,    2)  3AB 9AA 
    *  20    0.027355  (    2,    8)  3AA 9AB 


   ==> DETCI root 26 information <==

    DETCI Root 26 energy =     0.521816577893200

   The 20 most important determinants:

    *   1    0.856120  (    2,    2)  3AX 
    *   2   -0.295831  (    3,    2)  3AB 4AA 
    *   3   -0.295831  (    2,    3)  3AA 4AB 
    *   4   -0.161064  (    1,    2)  2AA 3AB 
    *   5   -0.161064  (    2,    1)  2AB 3AA 
    *   6    0.077683  (    1,    1)  2AX 
    *   7   -0.074909  (    2,    6)  3AA 7AB 
    *   8   -0.074909  (    6,    2)  3AB 7AA 
    *   9    0.062942  (    1,    3)  2AA 4AB 
    *  10    0.062942  (    3,    1)  2AB 4AA 
    *  11   -0.041270  (    2,    0)  1AB 3AA 
    *  12   -0.041270  (    0,    2)  1AA 3AB 
    *  13   -0.035145  (    0,    6)  1AA 7AB 
    *  14   -0.035145  (    6,    0)  1AB 7AA 
    *  15   -0.033352  (    9,    2)  3AB 10AA 
    *  16   -0.033352  (    2,    9)  3AA 10AB 
    *  17   -0.027598  (    9,    0)  1AB 10AA 
    *  18   -0.027598  (    0,    9)  1AA 10AB 
    *  19    0.024301  (    1,    0)  1AB 2AA 
    *  20    0.024301  (    0,    1)  1AA 2AB 


   ==> DETCI root 27 information <==

    DETCI Root 27 energy =     0.816163124495506

   The 20 most important determinants:

    *   1    0.664640  (    3,    2)  3AB 4AA 
    *   2   -0.664640  (    2,    3)  3AA 4AB 
    *   3   -0.185115  (    3,    1)  2AB 4AA 
    *   4    0.185115  (    1,    3)  2AA 4AB 
    *   5   -0.092235  (    1,    2)  2AA 3AB 
    *   6    0.092235  (    2,    1)  2AB 3AA 
    *   7   -0.058008  (    2,    0)  1AB 3AA 
    *   8    0.058008  (    0,    2)  1AA 3AB 
    *   9   -0.054009  (    2,    9)  3AA 10AB 
    *  10    0.054009  (    9,    2)  3AB 10AA 
    *  11   -0.050012  (    6,    2)  3AB 7AA 
    *  12    0.050012  (    2,    6)  3AA 7AB 
    *  13    0.047107  (    6,    3)  4AB 7AA 
    *  14   -0.047107  (    3,    6)  4AA 7AB 
    *  15   -0.037784  (    6,    1)  2AB 7AA 
    *  16    0.037784  (    1,    6)  2AA 7AB 
    *  17   -0.034812  (    3,    0)  1AB 4AA 
    *  18    0.034812  (    0,    3)  1AA 4AB 
    *  19   -0.028724  (    0,    1)  1AA 2AB 
    *  20    0.028724  (    1,    0)  1AB 2AA 


   ==> DETCI root 28 information <==

    DETCI Root 28 energy =     0.973966012575583

   The 20 most important determinants:

    *   1    0.566827  (    2,    3)  3AA 4AB 
    *   2    0.566827  (    3,    2)  3AB 4AA 
    *   3    0.306594  (    2,    2)  3AX 
    *   4   -0.294831  (    3,    3)  4AX 
    *   5   -0.188913  (    2,    1)  2AB 3AA 
    *   6   -0.188913  (    1,    2)  2AA 3AB 
    *   7   -0.123612  (    1,    3)  2AA 4AB 
    *   8   -0.123612  (    3,    1)  2AB 4AA 
    *   9   -0.120178  (    6,    2)  3AB 7AA 
    *  10   -0.120178  (    2,    6)  3AA 7AB 
    *  11    0.108817  (    1,    1)  2AX 
    *  12   -0.096625  (    9,    0)  1AB 10AA 
    *  13   -0.096625  (    0,    9)  1AA 10AB 
    *  14    0.050872  (    2,    0)  1AB 3AA 
    *  15    0.050872  (    0,    2)  1AA 3AB 
    *  16   -0.049555  (    6,    3)  4AB 7AA 
    *  17   -0.049555  (    3,    6)  4AA 7AB 
    *  18   -0.029049  (    0,    3)  1AA 4AB 
    *  19   -0.029049  (    3,    0)  1AB 4AA 
    *  20    0.024652  (    9,    2)  3AB 10AA 


   ==> DETCI root 29 information <==

    DETCI Root 29 energy =     0.990123501878619

   The 20 most important determinants:

    *   1    0.642194  (    4,    2)  3AB 5AA 
    *   2   -0.642194  (    2,    4)  3AA 5AB 
    *   3   -0.173241  (    5,    2)  3AB 6AA 
    *   4    0.173241  (    2,    5)  3AA 6AB 
    *   5   -0.126936  (    4,    1)  2AB 5AA 
    *   6    0.126936  (    1,    4)  2AA 5AB 
    *   7    0.119446  (    3,    4)  4AA 5AB 
    *   8   -0.119446  (    4,    3)  4AB 5AA 
    *   9   -0.114226  (    8,    2)  3AB 9AA 
    *  10    0.114226  (    2,    8)  3AA 9AB 
    *  11    0.094776  (    2,    7)  3AA 8AB 
    *  12   -0.094776  (    7,    2)  3AB 8AA 
    *  13   -0.044317  (    4,    6)  5AA 7AB 
    *  14    0.044317  (    6,    4)  5AB 7AA 
    *  15    0.034243  (    5,    1)  2AB 6AA 
    *  16   -0.034243  (    1,    5)  2AA 6AB 
    *  17    0.032222  (    5,    3)  4AB 6AA 
    *  18   -0.032222  (    3,    5)  4AA 6AB 
    *  19   -0.016463  (    4,    0)  1AB 5AA 
    *  20    0.016463  (    0,    4)  1AA 5AB 


   ==> DETCI root 30 information <==

    DETCI Root 30 energy =     0.990123501878619

   The 20 most important determinants:

    *   1    0.642194  (    5,    2)  3AB 6AA 
    *   2   -0.642194  (    2,    5)  3AA 6AB 
    *   3   -0.173241  (    2,    4)  3AA 5AB 
    *   4    0.173241  (    4,    2)  3AB 5AA 
    *   5    0.126936  (    1,    5)  2AA 6AB 
    *   6   -0.126936  (    5,    1)  2AB 6AA 
    *   7    0.119446  (    3,    5)  4AA 6AB 
    *   8   -0.119446  (    5,    3)  4AB 6AA 
    *   9    0.114226  (    2,    7)  3AA 8AB 
    *  10   -0.114226  (    7,    2)  3AB 8AA 
    *  11    0.094776  (    8,    2)  3AB 9AA 
    *  12   -0.094776  (    2,    8)  3AA 9AB 
    *  13   -0.044317  (    5,    6)  6AA 7AB 
    *  14    0.044317  (    6,    5)  6AB 7AA 
    *  15   -0.034243  (    4,    1)  2AB 5AA 
    *  16    0.034243  (    1,    4)  2AA 5AB 
    *  17    0.032222  (    3,    4)  4AA 5AB 
    *  18   -0.032222  (    4,    3)  4AB 5AA 
    *  19    0.016463  (    0,    5)  1AA 6AB 
    *  20   -0.016463  (    5,    0)  1AB 6AA 


   ==> DETCI root 31 information <==

    DETCI Root 31 energy =     1.032314251072710

   The 20 most important determinants:

    *   1    0.565330  (    4,    2)  3AB 5AA 
    *   2    0.565330  (    2,    4)  3AA 5AB 
    *   3    0.354703  (    5,    2)  3AB 6AA 
    *   4    0.354703  (    2,    5)  3AA 6AB 
    *   5   -0.159646  (    2,    7)  3AA 8AB 
    *   6   -0.159646  (    7,    2)  3AB 8AA 
    *   7   -0.095660  (    3,    4)  4AA 5AB 
    *   8   -0.095660  (    4,    3)  4AB 5AA 
    *   9   -0.079232  (    1,    4)  2AA 5AB 
    *  10   -0.079232  (    4,    1)  2AB 5AA 
    *  11    0.066177  (    0,    7)  1AA 8AB 
    *  12    0.066177  (    7,    0)  1AB 8AA 
    *  13   -0.060019  (    5,    3)  4AB 6AA 
    *  14   -0.060019  (    3,    5)  4AA 6AB 
    *  15   -0.049712  (    5,    1)  2AB 6AA 
    *  16   -0.049712  (    1,    5)  2AA 6AB 
    *  17   -0.033017  (    3,    7)  4AA 8AB 
    *  18   -0.033017  (    7,    3)  4AB 8AA 
    *  19   -0.025480  (    1,    7)  2AA 8AB 
    *  20   -0.025480  (    7,    1)  2AB 8AA 


   ==> DETCI root 32 information <==

    DETCI Root 32 energy =     1.032314251072711

   The 20 most important determinants:

    *   1   -0.565330  (    2,    5)  3AA 6AB 
    *   2   -0.565330  (    5,    2)  3AB 6AA 
    *   3    0.354703  (    2,    4)  3AA 5AB 
    *   4    0.354703  (    4,    2)  3AB 5AA 
    *   5   -0.159646  (    2,    8)  3AA 9AB 
    *   6   -0.159646  (    8,    2)  3AB 9AA 
    *   7    0.095660  (    3,    5)  4AA 6AB 
    *   8    0.095660  (    5,    3)  4AB 6AA 
    *   9    0.079232  (    1,    5)  2AA 6AB 
    *  10    0.079232  (    5,    1)  2AB 6AA 
    *  11    0.066177  (    0,    8)  1AA 9AB 
    *  12    0.066177  (    8,    0)  1AB 9AA 
    *  13   -0.060019  (    3,    4)  4AA 5AB 
    *  14   -0.060019  (    4,    3)  4AB 5AA 
    *  15   -0.049712  (    1,    4)  2AA 5AB 
    *  16   -0.049712  (    4,    1)  2AB 5AA 
    *  17   -0.033017  (    8,    3)  4AB 9AA 
    *  18   -0.033017  (    3,    8)  4AA 9AB 
    *  19   -0.025480  (    1,    8)  2AA 9AB 
    *  20   -0.025480  (    8,    1)  2AB 9AA 


   ==> DETCI root 33 information <==

    DETCI Root 33 energy =     1.063194120843461

   The 20 most important determinants:

    *   1   -0.654911  (    1,    6)  2AA 7AB 
    *   2    0.654911  (    6,    1)  2AB 7AA 
    *   3   -0.169731  (    2,    6)  3AA 7AB 
    *   4    0.169731  (    6,    2)  3AB 7AA 
    *   5   -0.091449  (    3,    6)  4AA 7AB 
    *   6    0.091449  (    6,    3)  4AB 7AA 
    *   7    0.089921  (    9,    1)  2AB 10AA 
    *   8   -0.089921  (    1,    9)  2AA 10AB 
    *   9   -0.089030  (    1,    2)  2AA 3AB 
    *  10    0.089030  (    2,    1)  2AB 3AA 
    *  11   -0.077345  (    0,    9)  1AA 10AB 
    *  12    0.077345  (    9,    0)  1AB 10AA 
    *  13   -0.074688  (    0,    6)  1AA 7AB 
    *  14    0.074688  (    6,    0)  1AB 7AA 
    *  15   -0.049809  (    2,    3)  3AA 4AB 
    *  16    0.049809  (    3,    2)  3AB 4AA 
    *  17   -0.044665  (    1,    3)  2AA 4AB 
    *  18    0.044665  (    3,    1)  2AB 4AA 
    *  19   -0.025582  (    2,    9)  3AA 10AB 
    *  20    0.025582  (    9,    2)  3AB 10AA 


   ==> DETCI root 34 information <==

    DETCI Root 34 energy =     1.261027815296619

   The 20 most important determinants:

    *   1    0.593137  (    6,    1)  2AB 7AA 
    *   2    0.593137  (    1,    6)  2AA 7AB 
    *   3    0.290153  (    3,    3)  4AX 
    *   4    0.232646  (    9,    0)  1AB 10AA 
    *   5    0.232646  (    0,    9)  1AA 10AB 
    *   6    0.126350  (    1,    1)  2AX 
    *   7   -0.110660  (    6,    6)  7AX 
    *   8    0.109662  (    3,    2)  3AB 4AA 
    *   9    0.109662  (    2,    3)  3AA 4AB 
    *  10    0.094221  (    2,    2)  3AX 
    *  11    0.089668  (    2,    1)  2AB 3AA 
    *  12    0.089668  (    1,    2)  2AA 3AB 
    *  13    0.067047  (    9,    1)  2AB 10AA 
    *  14    0.067047  (    1,    9)  2AA 10AB 
    *  15    0.064161  (    0,    6)  1AA 7AB 
    *  16    0.064161  (    6,    0)  1AB 7AA 
    *  17    0.032952  (    2,    0)  1AB 3AA 
    *  18    0.032952  (    0,    2)  1AA 3AB 
    *  19    0.030369  (    0,    3)  1AA 4AB 
    *  20    0.030369  (    3,    0)  1AB 4AA 


   ==> DETCI root 35 information <==

    DETCI Root 35 energy =     1.347233976921829

   The 20 most important determinants:

    *   1    0.853627  (    3,    3)  4AX 
    *   2   -0.236863  (    6,    1)  2AB 7AA 
    *   3   -0.236863  (    1,    6)  2AA 7AB 
    *   4   -0.171357  (    1,    3)  2AA 4AB 
    *   5   -0.171357  (    3,    1)  2AB 4AA 
    *   6    0.115430  (    2,    3)  3AA 4AB 
    *   7    0.115430  (    3,    2)  3AB 4AA 
    *   8    0.095873  (    2,    2)  3AX 
    *   9   -0.082692  (    1,    2)  2AA 3AB 
    *  10   -0.082692  (    2,    1)  2AB 3AA 
    *  11   -0.081273  (    9,    1)  2AB 10AA 
    *  12   -0.081273  (    1,    9)  2AA 10AB 
    *  13   -0.066820  (    6,    3)  4AB 7AA 
    *  14   -0.066820  (    3,    6)  4AA 7AB 
    *  15   -0.064435  (    5,    5)  6AX 
    *  16   -0.064435  (    4,    4)  5AX 
    *  17   -0.052902  (    2,    6)  3AA 7AB 
    *  18   -0.052902  (    6,    2)  3AB 7AA 
    *  19    0.043227  (    0,    9)  1AA 10AB 
    *  20    0.043227  (    9,    0)  1AB 10AA 


   ==> DETCI root 36 information <==

    DETCI Root 36 energy =     1.395026566473515

   The 20 most important determinants:

    *   1   -0.652142  (    3,    4)  4AA 5AB 
    *   2    0.652142  (    4,    3)  4AB 5AA 
    *   3   -0.193744  (    3,    5)  4AA 6AB 
    *   4    0.193744  (    5,    3)  4AB 6AA 
    *   5    0.094403  (    1,    4)  2AA 5AB 
    *   6   -0.094403  (    4,    1)  2AB 5AA 
    *   7   -0.082614  (    2,    4)  3AA 5AB 
    *   8    0.082614  (    4,    2)  3AB 5AA 
    *   9    0.076876  (    3,    7)  4AA 8AB 
    *  10   -0.076876  (    7,    3)  4AB 8AA 
    *  11    0.072149  (    2,    7)  3AA 8AB 
    *  12   -0.072149  (    7,    2)  3AB 8AA 
    *  13    0.048299  (    6,    4)  5AB 7AA 
    *  14   -0.048299  (    4,    6)  5AA 7AB 
    *  15   -0.039699  (    9,    4)  5AB 10AA 
    *  16    0.039699  (    4,    9)  5AA 10AB 
    *  17   -0.035085  (    0,    4)  1AA 5AB 
    *  18    0.035085  (    4,    0)  1AB 5AA 
    *  19    0.034738  (    7,    1)  2AB 8AA 
    *  20   -0.034738  (    1,    7)  2AA 8AB 


   ==> DETCI root 37 information <==

    DETCI Root 37 energy =     1.395026566473515

   The 20 most important determinants:

    *   1    0.652142  (    5,    3)  4AB 6AA 
    *   2   -0.652142  (    3,    5)  4AA 6AB 
    *   3    0.193744  (    3,    4)  4AA 5AB 
    *   4   -0.193744  (    4,    3)  4AB 5AA 
    *   5   -0.094403  (    5,    1)  2AB 6AA 
    *   6    0.094403  (    1,    5)  2AA 6AB 
    *   7    0.082614  (    5,    2)  3AB 6AA 
    *   8   -0.082614  (    2,    5)  3AA 6AB 
    *   9    0.076876  (    8,    3)  4AB 9AA 
    *  10   -0.076876  (    3,    8)  4AA 9AB 
    *  11    0.072149  (    8,    2)  3AB 9AA 
    *  12   -0.072149  (    2,    8)  3AA 9AB 
    *  13   -0.048299  (    5,    6)  6AA 7AB 
    *  14    0.048299  (    6,    5)  6AB 7AA 
    *  15    0.039699  (    5,    9)  6AA 10AB 
    *  16   -0.039699  (    9,    5)  6AB 10AA 
    *  17    0.035085  (    5,    0)  1AB 6AA 
    *  18   -0.035085  (    0,    5)  1AA 6AB 
    *  19    0.034738  (    1,    8)  2AA 9AB 
    *  20   -0.034738  (    8,    1)  2AB 9AA 


   ==> DETCI root 38 information <==

    DETCI Root 38 energy =     1.432450537858943

   The 20 most important determinants:

    *   1    0.643835  (    3,    5)  4AA 6AB 
    *   2    0.643835  (    5,    3)  4AB 6AA 
    *   3    0.205206  (    4,    3)  4AB 5AA 
    *   4    0.205206  (    3,    4)  4AA 5AB 
    *   5   -0.098521  (    1,    5)  2AA 6AB 
    *   6   -0.098521  (    5,    1)  2AB 6AA 
    *   7   -0.089375  (    7,    2)  3AB 8AA 
    *   8   -0.089375  (    2,    7)  3AA 8AB 
    *   9    0.067598  (    2,    8)  3AA 9AB 
    *  10    0.067598  (    8,    2)  3AB 9AA 
    *  11   -0.065639  (    7,    3)  4AB 8AA 
    *  12   -0.065639  (    3,    7)  4AA 8AB 
    *  13    0.061437  (    2,    5)  3AA 6AB 
    *  14    0.061437  (    5,    2)  3AB 6AA 
    *  15   -0.055102  (    1,    7)  2AA 8AB 
    *  16   -0.055102  (    7,    1)  2AB 8AA 
    *  17    0.049646  (    3,    8)  4AA 9AB 
    *  18    0.049646  (    8,    3)  4AB 9AA 
    *  19    0.041676  (    8,    1)  2AB 9AA 
    *  20    0.041676  (    1,    8)  2AA 9AB 


   ==> DETCI root 39 information <==

    DETCI Root 39 energy =     1.432450537858944

   The 20 most important determinants:

    *   1    0.643835  (    4,    3)  4AB 5AA 
    *   2    0.643835  (    3,    4)  4AA 5AB 
    *   3   -0.205206  (    5,    3)  4AB 6AA 
    *   4   -0.205206  (    3,    5)  4AA 6AB 
    *   5   -0.098521  (    1,    4)  2AA 5AB 
    *   6   -0.098521  (    4,    1)  2AB 5AA 
    *   7   -0.089375  (    2,    8)  3AA 9AB 
    *   8   -0.089375  (    8,    2)  3AB 9AA 
    *   9   -0.067598  (    2,    7)  3AA 8AB 
    *  10   -0.067598  (    7,    2)  3AB 8AA 
    *  11   -0.065639  (    8,    3)  4AB 9AA 
    *  12   -0.065639  (    3,    8)  4AA 9AB 
    *  13    0.061437  (    4,    2)  3AB 5AA 
    *  14    0.061437  (    2,    4)  3AA 5AB 
    *  15   -0.055102  (    1,    8)  2AA 9AB 
    *  16   -0.055102  (    8,    1)  2AB 9AA 
    *  17   -0.049646  (    7,    3)  4AB 8AA 
    *  18   -0.049646  (    3,    7)  4AA 8AB 
    *  19   -0.041676  (    1,    7)  2AA 8AB 
    *  20   -0.041676  (    7,    1)  2AB 8AA 


   ==> DETCI root 40 information <==

    DETCI Root 40 energy =     1.470351414306610

   The 20 most important determinants:

    *   1    0.649955  (    1,    7)  2AA 8AB 
    *   2   -0.649955  (    7,    1)  2AB 8AA 
    *   3   -0.143818  (    7,    2)  3AB 8AA 
    *   4    0.143818  (    2,    7)  3AA 8AB 
    *   5   -0.131668  (    4,    1)  2AB 5AA 
    *   6    0.131668  (    1,    4)  2AA 5AB 
    *   7    0.092580  (    0,    7)  1AA 8AB 
    *   8   -0.092580  (    7,    0)  1AB 8AA 
    *   9    0.086617  (    1,    8)  2AA 9AB 
    *  10   -0.086617  (    8,    1)  2AB 9AA 
    *  11   -0.075876  (    7,    3)  4AB 8AA 
    *  12    0.075876  (    3,    7)  4AA 8AB 
    *  13    0.068919  (    1,    5)  2AA 6AB 
    *  14   -0.068919  (    5,    1)  2AB 6AA 
    *  15   -0.065861  (    6,    4)  5AB 7AA 
    *  16    0.065861  (    4,    6)  5AA 7AB 
    *  17   -0.059200  (    6,    7)  7AA 8AB 
    *  18    0.059200  (    7,    6)  7AB 8AA 
    *  19    0.035549  (    0,    4)  1AA 5AB 
    *  20   -0.035549  (    4,    0)  1AB 5AA 


   ==> DETCI root 41 information <==

    DETCI Root 41 energy =     1.470351414306611

   The 20 most important determinants:

    *   1    0.649955  (    1,    8)  2AA 9AB 
    *   2   -0.649955  (    8,    1)  2AB 9AA 
    *   3   -0.143818  (    8,    2)  3AB 9AA 
    *   4    0.143818  (    2,    8)  3AA 9AB 
    *   5   -0.131668  (    1,    5)  2AA 6AB 
    *   6    0.131668  (    5,    1)  2AB 6AA 
    *   7    0.092580  (    0,    8)  1AA 9AB 
    *   8   -0.092580  (    8,    0)  1AB 9AA 
    *   9   -0.086617  (    1,    7)  2AA 8AB 
    *  10    0.086617  (    7,    1)  2AB 8AA 
    *  11    0.075876  (    3,    8)  4AA 9AB 
    *  12   -0.075876  (    8,    3)  4AB 9AA 
    *  13   -0.068919  (    4,    1)  2AB 5AA 
    *  14    0.068919  (    1,    4)  2AA 5AB 
    *  15    0.065861  (    6,    5)  6AB 7AA 
    *  16   -0.065861  (    5,    6)  6AA 7AB 
    *  17    0.059200  (    8,    6)  7AB 9AA 
    *  18   -0.059200  (    6,    8)  7AA 9AB 
    *  19   -0.035549  (    0,    5)  1AA 6AB 
    *  20    0.035549  (    5,    0)  1AB 6AA 


   ==> DETCI root 42 information <==

    DETCI Root 42 energy =     1.474694483443060

   The 20 most important determinants:

    *   1   -0.692815  (    0,    9)  1AA 10AB 
    *   2    0.692815  (    9,    0)  1AB 10AA 
    *   3   -0.086193  (    9,    1)  2AB 10AA 
    *   4    0.086193  (    1,    9)  2AA 10AB 
    *   5    0.060928  (    3,    9)  4AA 10AB 
    *   6   -0.060928  (    9,    3)  4AB 10AA 
    *   7   -0.060521  (    6,    1)  2AB 7AA 
    *   8    0.060521  (    1,    6)  2AA 7AB 
    *   9    0.041524  (    0,    3)  1AA 4AB 
    *  10   -0.041524  (    3,    0)  1AB 4AA 
    *  11   -0.034739  (    3,    6)  4AA 7AB 
    *  12    0.034739  (    6,    3)  4AB 7AA 
    *  13    0.032545  (    0,    6)  1AA 7AB 
    *  14   -0.032545  (    6,    0)  1AB 7AA 
    *  15    0.027591  (    2,    6)  3AA 7AB 
    *  16   -0.027591  (    6,    2)  3AB 7AA 
    *  17   -0.008849  (    9,    2)  3AB 10AA 
    *  18    0.008849  (    2,    9)  3AA 10AB 
    *  19   -0.007805  (    2,    0)  1AB 3AA 
    *  20    0.007805  (    0,    2)  1AA 3AB 


   ==> DETCI root 43 information <==

    DETCI Root 43 energy =     1.584976740981048

   The 20 most important determinants:

    *   1    0.690218  (    4,    5)  5AA 6AB 
    *   2   -0.690218  (    5,    4)  5AB 6AA 
    *   3   -0.087918  (    7,    5)  6AB 8AA 
    *   4    0.087918  (    4,    8)  5AA 9AB 
    *   5   -0.087918  (    8,    4)  5AB 9AA 
    *   6    0.087918  (    5,    7)  6AA 8AB 
    *   7   -0.062064  (    8,    5)  6AB 9AA 
    *   8    0.062064  (    5,    8)  6AA 9AB 
    *   9   -0.062064  (    4,    7)  5AA 8AB 
    *  10    0.062064  (    7,    4)  5AB 8AA 
    *  11    0.020897  (    7,    8)  8AA 9AB 
    *  12   -0.020897  (    8,    7)  8AB 9AA 


   ==> DETCI root 44 information <==

    DETCI Root 44 energy =     1.640283023704261

   The 20 most important determinants:

    *   1    0.577220  (    0,    9)  1AA 10AB 
    *   2    0.577220  (    9,    0)  1AB 10AA 
    *   3    0.248967  (    2,    6)  3AA 7AB 
    *   4    0.248967  (    6,    2)  3AB 7AA 
    *   5   -0.196115  (    1,    6)  2AA 7AB 
    *   6   -0.196115  (    6,    1)  2AB 7AA 
    *   7   -0.166942  (    3,    3)  4AX 
    *   8    0.139512  (    2,    2)  3AX 
    *   9    0.131922  (    4,    4)  5AX 
    *  10    0.131922  (    5,    5)  6AX 
    *  11   -0.098922  (    9,    1)  2AB 10AA 
    *  12   -0.098922  (    1,    9)  2AA 10AB 
    *  13   -0.067531  (    6,    6)  7AX 
    *  14    0.061299  (    2,    3)  3AA 4AB 
    *  15    0.061299  (    3,    2)  3AB 4AA 
    *  16   -0.051316  (    3,    6)  4AA 7AB 
    *  17   -0.051316  (    6,    3)  4AB 7AA 
    *  18   -0.049146  (    9,    3)  4AB 10AA 
    *  19   -0.049146  (    3,    9)  4AA 10AB 
    *  20    0.029782  (    8,    5)  6AB 9AA 


   ==> DETCI root 45 information <==

    DETCI Root 45 energy =     1.663170972226071

   The 20 most important determinants:

    *   1   -0.689592  (    5,    4)  5AB 6AA 
    *   2   -0.689592  (    4,    5)  5AA 6AB 
    *   3   -0.074716  (    8,    4)  5AB 9AA 
    *   4    0.074716  (    5,    7)  6AA 8AB 
    *   5   -0.074716  (    4,    8)  5AA 9AB 
    *   6    0.074716  (    7,    5)  6AB 8AA 
    *   7    0.063304  (    5,    8)  6AA 9AB 
    *   8    0.063304  (    7,    4)  5AB 8AA 
    *   9    0.063304  (    8,    5)  6AB 9AA 
    *  10    0.063304  (    4,    7)  5AA 8AB 
    *  11   -0.060980  (    4,    4)  5AX 
    *  12    0.060980  (    5,    5)  6AX 
    *  13    0.038302  (    7,    7)  8AX 
    *  14   -0.038302  (    8,    8)  9AX 
    *  15   -0.009911  (    8,    7)  8AB 9AA 
    *  16   -0.009911  (    7,    8)  8AA 9AB 


   ==> DETCI root 46 information <==

    DETCI Root 46 energy =     1.663170972226072

   The 20 most important determinants:

    *   1    0.689592  (    4,    4)  5AX 
    *   2   -0.689592  (    5,    5)  6AX 
    *   3   -0.074716  (    4,    7)  5AA 8AB 
    *   4   -0.074716  (    7,    4)  5AB 8AA 
    *   5   -0.074716  (    8,    5)  6AB 9AA 
    *   6   -0.074716  (    5,    8)  6AA 9AB 
    *   7   -0.063304  (    4,    8)  5AA 9AB 
    *   8   -0.063304  (    8,    4)  5AB 9AA 
    *   9    0.063304  (    5,    7)  6AA 8AB 
    *  10    0.063304  (    7,    5)  6AB 8AA 
    *  11   -0.060980  (    5,    4)  5AB 6AA 
    *  12   -0.060980  (    4,    5)  5AA 6AB 
    *  13   -0.038302  (    8,    7)  8AB 9AA 
    *  14   -0.038302  (    7,    8)  8AA 9AB 
    *  15   -0.009911  (    7,    7)  8AX 
    *  16    0.009911  (    8,    8)  9AX 


   ==> DETCI root 47 information <==

    DETCI Root 47 energy =     1.679985062357651

   The 20 most important determinants:

    *   1   -0.648189  (    7,    1)  2AB 8AA 
    *   2   -0.648189  (    1,    7)  2AA 8AB 
    *   3   -0.132372  (    1,    4)  2AA 5AB 
    *   4   -0.132372  (    4,    1)  2AB 5AA 
    *   5   -0.112421  (    5,    1)  2AB 6AA 
    *   6   -0.112421  (    1,    5)  2AA 6AB 
    *   7   -0.103325  (    7,    0)  1AB 8AA 
    *   8   -0.103325  (    0,    7)  1AA 8AB 
    *   9    0.090993  (    6,    4)  5AB 7AA 
    *  10    0.090993  (    4,    6)  5AA 7AB 
    *  11    0.077279  (    5,    6)  6AA 7AB 
    *  12    0.077279  (    6,    5)  6AB 7AA 
    *  13   -0.065123  (    4,    3)  4AB 5AA 
    *  14   -0.065123  (    3,    4)  4AA 5AB 
    *  15    0.064597  (    7,    6)  7AB 8AA 
    *  16    0.064597  (    6,    7)  7AA 8AB 
    *  17    0.058087  (    8,    1)  2AB 9AA 
    *  18    0.058087  (    1,    8)  2AA 9AB 
    *  19   -0.055308  (    3,    5)  4AA 6AB 
    *  20   -0.055308  (    5,    3)  4AB 6AA 


   ==> DETCI root 48 information <==

    DETCI Root 48 energy =     1.679985062357652

   The 20 most important determinants:

    *   1    0.648189  (    8,    1)  2AB 9AA 
    *   2    0.648189  (    1,    8)  2AA 9AB 
    *   3   -0.132372  (    5,    1)  2AB 6AA 
    *   4   -0.132372  (    1,    5)  2AA 6AB 
    *   5    0.112421  (    4,    1)  2AB 5AA 
    *   6    0.112421  (    1,    4)  2AA 5AB 
    *   7    0.103325  (    8,    0)  1AB 9AA 
    *   8    0.103325  (    0,    8)  1AA 9AB 
    *   9    0.090993  (    5,    6)  6AA 7AB 
    *  10    0.090993  (    6,    5)  6AB 7AA 
    *  11   -0.077279  (    6,    4)  5AB 7AA 
    *  12   -0.077279  (    4,    6)  5AA 7AB 
    *  13   -0.065123  (    3,    5)  4AA 6AB 
    *  14   -0.065123  (    5,    3)  4AB 6AA 
    *  15   -0.064597  (    8,    6)  7AB 9AA 
    *  16   -0.064597  (    6,    8)  7AA 9AB 
    *  17    0.058087  (    7,    1)  2AB 8AA 
    *  18    0.058087  (    1,    7)  2AA 8AB 
    *  19    0.055308  (    3,    4)  4AA 5AB 
    *  20    0.055308  (    4,    3)  4AB 5AA 


   ==> DETCI root 49 information <==

    DETCI Root 49 energy =     1.723758792767400

   The 20 most important determinants:

    *   1   -0.658209  (    6,    2)  3AB 7AA 
    *   2    0.658209  (    2,    6)  3AA 7AB 
    *   3    0.173016  (    6,    3)  4AB 7AA 
    *   4   -0.173016  (    3,    6)  4AA 7AB 
    *   5    0.142658  (    6,    1)  2AB 7AA 
    *   6   -0.142658  (    1,    6)  2AA 7AB 
    *   7   -0.088247  (    9,    2)  3AB 10AA 
    *   8    0.088247  (    2,    9)  3AA 10AB 
    *   9   -0.065262  (    1,    2)  2AA 3AB 
    *  10    0.065262  (    2,    1)  2AB 3AA 
    *  11   -0.048432  (    3,    2)  3AB 4AA 
    *  12    0.048432  (    2,    3)  3AA 4AB 
    *  13   -0.022989  (    1,    3)  2AA 4AB 
    *  14    0.022989  (    3,    1)  2AB 4AA 
    *  15    0.022911  (    6,    0)  1AB 7AA 
    *  16   -0.022911  (    0,    6)  1AA 7AB 
    *  17   -0.022407  (    9,    0)  1AB 10AA 
    *  18    0.022407  (    0,    9)  1AA 10AB 
    *  19    0.013220  (    3,    9)  4AA 10AB 
    *  20   -0.013220  (    9,    3)  4AB 10AA 


   ==> DETCI root 50 information <==

    DETCI Root 50 energy =     1.753695111097586

   The 20 most important determinants:

    *   1   -0.670242  (    5,    5)  6AX 
    *   2   -0.670242  (    4,    4)  5AX 
    *   3    0.153117  (    9,    0)  1AB 10AA 
    *   4    0.153117  (    0,    9)  1AA 10AB 
    *   5   -0.123806  (    3,    3)  4AX 
    *   6   -0.065366  (    5,    8)  6AA 9AB 
    *   7   -0.065366  (    8,    5)  6AB 9AA 
    *   8    0.065366  (    4,    7)  5AA 8AB 
    *   9    0.065366  (    7,    4)  5AB 8AA 
    *  10    0.061056  (    7,    7)  8AX 
    *  11    0.061056  (    8,    8)  9AX 
    *  12    0.046144  (    4,    8)  5AA 9AB 
    *  13    0.046144  (    8,    4)  5AB 9AA 
    *  14    0.046144  (    7,    5)  6AB 8AA 
    *  15    0.046144  (    5,    7)  6AA 8AB 
    *  16    0.044473  (    6,    6)  7AX 
    *  17   -0.042968  (    0,    0)  1AX 
    *  18   -0.022480  (    2,    2)  3AX 
    *  19    0.015959  (    0,    6)  1AA 7AB 
    *  20    0.015959  (    6,    0)  1AB 7AA 


   ==> DETCI root 51 information <==

    DETCI Root 51 energy =     1.879419617871512

   The 20 most important determinants:

    *   1   -0.569435  (    6,    2)  3AB 7AA 
    *   2   -0.569435  (    2,    6)  3AA 7AB 
    *   3    0.290883  (    3,    6)  4AA 7AB 
    *   4    0.290883  (    6,    3)  4AB 7AA 
    *   5    0.244354  (    9,    0)  1AB 10AA 
    *   6    0.244354  (    0,    9)  1AA 10AB 
    *   7   -0.134437  (    2,    2)  3AX 
    *   8    0.073867  (    5,    5)  6AX 
    *   9    0.073867  (    4,    4)  5AX 
    *  10    0.073507  (    6,    6)  7AX 
    *  11   -0.062249  (    1,    6)  2AA 7AB 
    *  12   -0.062249  (    6,    1)  2AB 7AA 
    *  13   -0.061513  (    3,    3)  4AX 
    *  14   -0.059512  (    9,    2)  3AB 10AA 
    *  15   -0.059512  (    2,    9)  3AA 10AB 
    *  16   -0.046040  (    2,    3)  3AA 4AB 
    *  17   -0.046040  (    3,    2)  3AB 4AA 
    *  18   -0.030655  (    1,    2)  2AA 3AB 
    *  19   -0.030655  (    2,    1)  2AB 3AA 
    *  20   -0.026464  (    9,    9)  10AX 


   ==> DETCI root 52 information <==

    DETCI Root 52 energy =     2.095855010231273

   The 20 most important determinants:

    *   1   -0.569688  (    7,    2)  3AB 8AA 
    *   2    0.569688  (    2,    7)  3AA 8AB 
    *   3    0.258916  (    2,    8)  3AA 9AB 
    *   4   -0.258916  (    8,    2)  3AB 9AA 
    *   5    0.225973  (    7,    3)  4AB 8AA 
    *   6   -0.225973  (    3,    7)  4AA 8AB 
    *   7   -0.128041  (    4,    2)  3AB 5AA 
    *   8    0.128041  (    2,    4)  3AA 5AB 
    *   9    0.110311  (    7,    1)  2AB 8AA 
    *  10   -0.110311  (    1,    7)  2AA 8AB 
    *  11   -0.102702  (    3,    8)  4AA 9AB 
    *  12    0.102702  (    8,    3)  4AB 9AA 
    *  13    0.099799  (    4,    6)  5AA 7AB 
    *  14   -0.099799  (    6,    4)  5AB 7AA 
    *  15    0.050135  (    8,    1)  2AB 9AA 
    *  16   -0.050135  (    1,    8)  2AA 9AB 
    *  17    0.036410  (    7,    6)  7AB 8AA 
    *  18   -0.036410  (    6,    7)  7AA 8AB 
    *  19    0.034741  (    4,    1)  2AB 5AA 
    *  20   -0.034741  (    1,    4)  2AA 5AB 


   ==> DETCI root 53 information <==

    DETCI Root 53 energy =     2.095855010231274

   The 20 most important determinants:

    *   1   -0.569688  (    2,    8)  3AA 9AB 
    *   2    0.569688  (    8,    2)  3AB 9AA 
    *   3   -0.258916  (    7,    2)  3AB 8AA 
    *   4    0.258916  (    2,    7)  3AA 8AB 
    *   5    0.225973  (    3,    8)  4AA 9AB 
    *   6   -0.225973  (    8,    3)  4AB 9AA 
    *   7   -0.128041  (    5,    2)  3AB 6AA 
    *   8    0.128041  (    2,    5)  3AA 6AB 
    *   9   -0.110311  (    8,    1)  2AB 9AA 
    *  10    0.110311  (    1,    8)  2AA 9AB 
    *  11    0.102702  (    7,    3)  4AB 8AA 
    *  12   -0.102702  (    3,    7)  4AA 8AB 
    *  13   -0.099799  (    6,    5)  6AB 7AA 
    *  14    0.099799  (    5,    6)  6AA 7AB 
    *  15    0.050135  (    7,    1)  2AB 8AA 
    *  16   -0.050135  (    1,    7)  2AA 8AB 
    *  17   -0.036410  (    8,    6)  7AB 9AA 
    *  18    0.036410  (    6,    8)  7AA 9AB 
    *  19   -0.034741  (    1,    5)  2AA 6AB 
    *  20    0.034741  (    5,    1)  2AB 6AA 


   ==> DETCI root 54 information <==

    DETCI Root 54 energy =     2.128003768665577

   The 20 most important determinants:

    *   1   -0.670995  (    3,    6)  4AA 7AB 
    *   2    0.670995  (    6,    3)  4AB 7AA 
    *   3   -0.145886  (    2,    6)  3AA 7AB 
    *   4    0.145886  (    6,    2)  3AB 7AA 
    *   5    0.119829  (    1,    6)  2AA 7AB 
    *   6   -0.119829  (    6,    1)  2AB 7AA 
    *   7   -0.048326  (    3,    2)  3AB 4AA 
    *   8    0.048326  (    2,    3)  3AA 4AB 
    *   9   -0.044291  (    0,    6)  1AA 7AB 
    *  10    0.044291  (    6,    0)  1AB 7AA 
    *  11   -0.042247  (    3,    9)  4AA 10AB 
    *  12    0.042247  (    9,    3)  4AB 10AA 
    *  13   -0.040347  (    2,    1)  2AB 3AA 
    *  14    0.040347  (    1,    2)  2AA 3AB 
    *  15   -0.037700  (    2,    9)  3AA 10AB 
    *  16    0.037700  (    9,    2)  3AB 10AA 
    *  17    0.036379  (    0,    9)  1AA 10AB 
    *  18   -0.036379  (    9,    0)  1AB 10AA 
    *  19   -0.036154  (    9,    6)  7AB 10AA 
    *  20    0.036154  (    6,    9)  7AA 10AB 


   ==> DETCI root 55 information <==

    DETCI Root 55 energy =     2.142908543542677

   The 20 most important determinants:

    *   1   -0.602461  (    2,    7)  3AA 8AB 
    *   2   -0.602461  (    7,    2)  3AB 8AA 
    *   3    0.266530  (    3,    7)  4AA 8AB 
    *   4    0.266530  (    7,    3)  4AB 8AA 
    *   5    0.137414  (    6,    4)  5AB 7AA 
    *   6    0.137414  (    4,    6)  5AA 7AB 
    *   7   -0.120823  (    2,    4)  3AA 5AB 
    *   8   -0.120823  (    4,    2)  3AB 5AA 
    *   9   -0.119178  (    8,    2)  3AB 9AA 
    *  10   -0.119178  (    2,    8)  3AA 9AB 
    *  11    0.061267  (    6,    5)  6AB 7AA 
    *  12    0.061267  (    5,    6)  6AA 7AB 
    *  13   -0.053870  (    2,    5)  3AA 6AB 
    *  14   -0.053870  (    5,    2)  3AB 6AA 
    *  15    0.052724  (    8,    3)  4AB 9AA 
    *  16    0.052724  (    3,    8)  4AA 9AB 
    *  17    0.042982  (    1,    7)  2AA 8AB 
    *  18    0.042982  (    7,    1)  2AB 8AA 
    *  19   -0.042367  (    4,    3)  4AB 5AA 
    *  20   -0.042367  (    3,    4)  4AA 5AB 


   ==> DETCI root 56 information <==

    DETCI Root 56 energy =     2.142908543542679

   The 20 most important determinants:

    *   1    0.602461  (    8,    2)  3AB 9AA 
    *   2    0.602461  (    2,    8)  3AA 9AB 
    *   3   -0.266530  (    8,    3)  4AB 9AA 
    *   4   -0.266530  (    3,    8)  4AA 9AB 
    *   5    0.137414  (    6,    5)  6AB 7AA 
    *   6    0.137414  (    5,    6)  6AA 7AB 
    *   7   -0.120823  (    5,    2)  3AB 6AA 
    *   8   -0.120823  (    2,    5)  3AA 6AB 
    *   9   -0.119178  (    2,    7)  3AA 8AB 
    *  10   -0.119178  (    7,    2)  3AB 8AA 
    *  11   -0.061267  (    6,    4)  5AB 7AA 
    *  12   -0.061267  (    4,    6)  5AA 7AB 
    *  13    0.053870  (    4,    2)  3AB 5AA 
    *  14    0.053870  (    2,    4)  3AA 5AB 
    *  15    0.052724  (    3,    7)  4AA 8AB 
    *  16    0.052724  (    7,    3)  4AB 8AA 
    *  17   -0.042982  (    8,    1)  2AB 9AA 
    *  18   -0.042982  (    1,    8)  2AA 9AB 
    *  19   -0.042367  (    5,    3)  4AB 6AA 
    *  20   -0.042367  (    3,    5)  4AA 6AB 


   ==> DETCI root 57 information <==

    DETCI Root 57 energy =     2.206760935210016

   The 20 most important determinants:

    *   1    0.621316  (    6,    3)  4AB 7AA 
    *   2    0.621316  (    3,    6)  4AA 7AB 
    *   3    0.240591  (    6,    2)  3AB 7AA 
    *   4    0.240591  (    2,    6)  3AA 7AB 
    *   5   -0.159922  (    6,    6)  7AX 
    *   6    0.097495  (    2,    2)  3AX 
    *   7    0.093973  (    2,    3)  3AA 4AB 
    *   8    0.093973  (    3,    2)  3AB 4AA 
    *   9    0.090608  (    2,    9)  3AA 10AB 
    *  10    0.090608  (    9,    2)  3AB 10AA 
    *  11    0.075398  (    3,    3)  4AX 
    *  12   -0.070152  (    9,    0)  1AB 10AA 
    *  13   -0.070152  (    0,    9)  1AA 10AB 
    *  14    0.058567  (    9,    3)  4AB 10AA 
    *  15    0.058567  (    3,    9)  4AA 10AB 
    *  16   -0.056422  (    6,    1)  2AB 7AA 
    *  17   -0.056422  (    1,    6)  2AA 7AB 
    *  18    0.042253  (    6,    9)  7AA 10AB 
    *  19    0.042253  (    9,    6)  7AB 10AA 
    *  20    0.040550  (    6,    0)  1AB 7AA 


   ==> DETCI root 58 information <==

    DETCI Root 58 energy =     2.300698131083952

   The 20 most important determinants:

    *   1    0.650627  (    6,    4)  5AB 7AA 
    *   2   -0.650627  (    4,    6)  5AA 7AB 
    *   3   -0.146106  (    3,    7)  4AA 8AB 
    *   4    0.146106  (    7,    3)  4AB 8AA 
    *   5    0.138069  (    6,    5)  6AB 7AA 
    *   6   -0.138069  (    5,    6)  6AA 7AB 
    *   7   -0.122889  (    6,    7)  7AA 8AB 
    *   8    0.122889  (    7,    6)  7AB 8AA 
    *   9    0.063281  (    2,    4)  3AA 5AB 
    *  10   -0.063281  (    4,    2)  3AB 5AA 
    *  11   -0.062738  (    3,    8)  4AA 9AB 
    *  12    0.062738  (    8,    3)  4AB 9AA 
    *  13    0.058632  (    1,    7)  2AA 8AB 
    *  14   -0.058632  (    7,    1)  2AB 8AA 
    *  15   -0.052769  (    6,    8)  7AA 9AB 
    *  16    0.052769  (    8,    6)  7AB 9AA 
    *  17    0.047150  (    9,    4)  5AB 10AA 
    *  18   -0.047150  (    4,    9)  5AA 10AB 
    *  19    0.037335  (    1,    4)  2AA 5AB 
    *  20   -0.037335  (    4,    1)  2AB 5AA 


   ==> DETCI root 59 information <==

    DETCI Root 59 energy =     2.300698131083953

   The 20 most important determinants:

    *   1    0.650627  (    5,    6)  6AA 7AB 
    *   2   -0.650627  (    6,    5)  6AB 7AA 
    *   3    0.146106  (    8,    3)  4AB 9AA 
    *   4   -0.146106  (    3,    8)  4AA 9AB 
    *   5   -0.138069  (    4,    6)  5AA 7AB 
    *   6    0.138069  (    6,    4)  5AB 7AA 
    *   7    0.122889  (    8,    6)  7AB 9AA 
    *   8   -0.122889  (    6,    8)  7AA 9AB 
    *   9    0.063281  (    5,    2)  3AB 6AA 
    *  10   -0.063281  (    2,    5)  3AA 6AB 
    *  11   -0.062738  (    7,    3)  4AB 8AA 
    *  12    0.062738  (    3,    7)  4AA 8AB 
    *  13   -0.058632  (    8,    1)  2AB 9AA 
    *  14    0.058632  (    1,    8)  2AA 9AB 
    *  15   -0.052769  (    7,    6)  7AB 8AA 
    *  16    0.052769  (    6,    7)  7AA 8AB 
    *  17    0.047150  (    5,    9)  6AA 10AB 
    *  18   -0.047150  (    9,    5)  6AB 10AA 
    *  19    0.037335  (    5,    1)  2AB 6AA 
    *  20   -0.037335  (    1,    5)  2AA 6AB 


   ==> DETCI root 60 information <==

    DETCI Root 60 energy =     2.386834053729117

   The 20 most important determinants:

    *   1    0.497647  (    6,    5)  6AB 7AA 
    *   2    0.497647  (    5,    6)  6AA 7AB 
    *   3   -0.375891  (    4,    6)  5AA 7AB 
    *   4   -0.375891  (    6,    4)  5AB 7AA 
    *   5    0.281008  (    3,    8)  4AA 9AB 
    *   6    0.281008  (    8,    3)  4AB 9AA 
    *   7    0.117768  (    6,    8)  7AA 9AB 
    *   8    0.117768  (    8,    6)  7AB 9AA 
    *   9   -0.112176  (    1,    8)  2AA 9AB 
    *  10   -0.112176  (    8,    1)  2AB 9AA 
    *  11    0.030509  (    1,    5)  2AA 6AB 
    *  12    0.030509  (    5,    1)  2AB 6AA 
    *  13    0.029173  (    9,    5)  6AB 10AA 
    *  14    0.029173  (    5,    9)  6AA 10AB 
    *  15    0.028587  (    0,    8)  1AA 9AB 
    *  16    0.028587  (    8,    0)  1AB 9AA 
    *  17    0.025974  (    5,    2)  3AB 6AA 
    *  18    0.025974  (    2,    5)  3AA 6AB 
    *  19   -0.024450  (    2,    8)  3AA 9AB 
    *  20   -0.024450  (    8,    2)  3AB 9AA 


   ==> DETCI root 61 information <==

    DETCI Root 61 energy =     2.386834053729117

[...]
 ------------------------------------------------------------------------------------

 L = 1.  Multiply by 2.5417464519 to convert [e a0] to [Debye]
 Dipole X            :          0.0000000            0.0000000            0.0000000
 Dipole Y            :         -0.0000000            0.0000000           -0.0000000
 Dipole Z            :          0.0061744            0.0000000            0.0061744
 Magnitude           :                                                    0.0061744

 ------------------------------------------------------------------------------------

Properties computed using the CI ROOT 0 -> ROOT 86 density matrix


Transition Multipole Moments:

 ------------------------------------------------------------------------------------
     Multipole            Electronic (a.u.)      Nuclear  (a.u.)        Total (a.u.)
 ------------------------------------------------------------------------------------

 L = 1.  Multiply by 2.5417464519 to convert [e a0] to [Debye]
 Dipole X            :         -0.0000000            0.0000000           -0.0000000
 Dipole Y            :         -0.0000000            0.0000000           -0.0000000
 Dipole Z            :         -0.0000000            0.0000000           -0.0000000
 Magnitude           :                                                    0.0000000

 ------------------------------------------------------------------------------------

Properties computed using the CI ROOT 0 -> ROOT 87 density matrix


Transition Multipole Moments:

 ------------------------------------------------------------------------------------
     Multipole            Electronic (a.u.)      Nuclear  (a.u.)        Total (a.u.)
 ------------------------------------------------------------------------------------

 L = 1.  Multiply by 2.5417464519 to convert [e a0] to [Debye]
 Dipole X            :         -0.0000000            0.0000000           -0.0000000
 Dipole Y            :          0.0000000            0.0000000            0.0000000
 Dipole Z            :         -0.0000000            0.0000000           -0.0000000
 Magnitude           :                                                    0.0000000

 ------------------------------------------------------------------------------------

Properties computed using the CI ROOT 0 -> ROOT 88 density matrix


Transition Multipole Moments:

 ------------------------------------------------------------------------------------
     Multipole            Electronic (a.u.)      Nuclear  (a.u.)        Total (a.u.)
 ------------------------------------------------------------------------------------

 L = 1.  Multiply by 2.5417464519 to convert [e a0] to [Debye]
 Dipole X            :          0.0008358            0.0000000            0.0008358
 Dipole Y            :          0.0012925            0.0000000            0.0012925
 Dipole Z            :          0.0000000            0.0000000            0.0000000
 Magnitude           :                                                    0.0015392

 ------------------------------------------------------------------------------------

Properties computed using the CI ROOT 0 -> ROOT 89 density matrix


Transition Multipole Moments:

 ------------------------------------------------------------------------------------
     Multipole            Electronic (a.u.)      Nuclear  (a.u.)        Total (a.u.)
 ------------------------------------------------------------------------------------

 L = 1.  Multiply by 2.5417464519 to convert [e a0] to [Debye]
 Dipole X            :         -0.0012925            0.0000000           -0.0012925
 Dipole Y            :          0.0008358            0.0000000            0.0008358
 Dipole Z            :          0.0000000            0.0000000            0.0000000
 Magnitude           :                                                    0.0015392

 ------------------------------------------------------------------------------------

Properties computed using the CI ROOT 0 -> ROOT 90 density matrix


Transition Multipole Moments:

 ------------------------------------------------------------------------------------
     Multipole            Electronic (a.u.)      Nuclear  (a.u.)        Total (a.u.)
 ------------------------------------------------------------------------------------

 L = 1.  Multiply by 2.5417464519 to convert [e a0] to [Debye]
 Dipole X            :         -0.0015619            0.0000000           -0.0015619
 Dipole Y            :          0.0004543            0.0000000            0.0004543
 Dipole Z            :          0.0000000            0.0000000            0.0000000
 Magnitude           :                                                    0.0016266

 ------------------------------------------------------------------------------------

Properties computed using the CI ROOT 0 -> ROOT 91 density matrix


Transition Multipole Moments:

 ------------------------------------------------------------------------------------
     Multipole            Electronic (a.u.)      Nuclear  (a.u.)        Total (a.u.)
 ------------------------------------------------------------------------------------

 L = 1.  Multiply by 2.5417464519 to convert [e a0] to [Debye]
 Dipole X            :          0.0004543            0.0000000            0.0004543
 Dipole Y            :          0.0015619            0.0000000            0.0015619
 Dipole Z            :         -0.0000000            0.0000000           -0.0000000
 Magnitude           :                                                    0.0016266

 ------------------------------------------------------------------------------------

Properties computed using the CI ROOT 0 -> ROOT 92 density matrix


Transition Multipole Moments:

 ------------------------------------------------------------------------------------
     Multipole            Electronic (a.u.)      Nuclear  (a.u.)        Total (a.u.)
 ------------------------------------------------------------------------------------

 L = 1.  Multiply by 2.5417464519 to convert [e a0] to [Debye]
 Dipole X            :          0.0000000            0.0000000            0.0000000
 Dipole Y            :         -0.0000000            0.0000000           -0.0000000
 Dipole Z            :         -0.0030743            0.0000000           -0.0030743
 Magnitude           :                                                    0.0030743

 ------------------------------------------------------------------------------------

Properties computed using the CI ROOT 0 -> ROOT 93 density matrix


Transition Multipole Moments:

 ------------------------------------------------------------------------------------
     Multipole            Electronic (a.u.)      Nuclear  (a.u.)        Total (a.u.)
 ------------------------------------------------------------------------------------

 L = 1.  Multiply by 2.5417464519 to convert [e a0] to [Debye]
 Dipole X            :          0.0000000            0.0000000            0.0000000
 Dipole Y            :         -0.0000000            0.0000000           -0.0000000
 Dipole Z            :         -0.0102816            0.0000000           -0.0102816
 Magnitude           :                                                    0.0102816

 ------------------------------------------------------------------------------------

Properties computed using the CI ROOT 0 -> ROOT 94 density matrix


Transition Multipole Moments:

 ------------------------------------------------------------------------------------
     Multipole            Electronic (a.u.)      Nuclear  (a.u.)        Total (a.u.)
 ------------------------------------------------------------------------------------

 L = 1.  Multiply by 2.5417464519 to convert [e a0] to [Debye]
 Dipole X            :         -0.0000000            0.0000000           -0.0000000
 Dipole Y            :         -0.0000000            0.0000000           -0.0000000
 Dipole Z            :          0.0012882            0.0000000            0.0012882
 Magnitude           :                                                    0.0012882

 ------------------------------------------------------------------------------------

Properties computed using the CI ROOT 0 -> ROOT 95 density matrix


Transition Multipole Moments:

 ------------------------------------------------------------------------------------
     Multipole            Electronic (a.u.)      Nuclear  (a.u.)        Total (a.u.)
 ------------------------------------------------------------------------------------

 L = 1.  Multiply by 2.5417464519 to convert [e a0] to [Debye]
 Dipole X            :          0.0007110            0.0000000            0.0007110
 Dipole Y            :          0.0017269            0.0000000            0.0017269
 Dipole Z            :         -0.0000000            0.0000000           -0.0000000
 Magnitude           :                                                    0.0018675

 ------------------------------------------------------------------------------------

Properties computed using the CI ROOT 0 -> ROOT 96 density matrix


Transition Multipole Moments:

 ------------------------------------------------------------------------------------
     Multipole            Electronic (a.u.)      Nuclear  (a.u.)        Total (a.u.)
 ------------------------------------------------------------------------------------

 L = 1.  Multiply by 2.5417464519 to convert [e a0] to [Debye]
 Dipole X            :          0.0017269            0.0000000            0.0017269
 Dipole Y            :         -0.0007110            0.0000000           -0.0007110
 Dipole Z            :         -0.0000000            0.0000000           -0.0000000
 Magnitude           :                                                    0.0018675

 ------------------------------------------------------------------------------------

Properties computed using the CI ROOT 0 -> ROOT 97 density matrix


Transition Multipole Moments:

 ------------------------------------------------------------------------------------
     Multipole            Electronic (a.u.)      Nuclear  (a.u.)        Total (a.u.)
 ------------------------------------------------------------------------------------

 L = 1.  Multiply by 2.5417464519 to convert [e a0] to [Debye]
 Dipole X            :          0.0004211            0.0000000            0.0004211
 Dipole Y            :          0.0003315            0.0000000            0.0003315
 Dipole Z            :         -0.0000000            0.0000000           -0.0000000
 Magnitude           :                                                    0.0005359

 ------------------------------------------------------------------------------------

Properties computed using the CI ROOT 0 -> ROOT 98 density matrix


Transition Multipole Moments:

 ------------------------------------------------------------------------------------
     Multipole            Electronic (a.u.)      Nuclear  (a.u.)        Total (a.u.)
 ------------------------------------------------------------------------------------

 L = 1.  Multiply by 2.5417464519 to convert [e a0] to [Debye]
 Dipole X            :         -0.0003315            0.0000000           -0.0003315
 Dipole Y            :          0.0004211            0.0000000            0.0004211
 Dipole Z            :         -0.0000000            0.0000000           -0.0000000
 Magnitude           :                                                    0.0005359

 ------------------------------------------------------------------------------------

Properties computed using the CI ROOT 0 -> ROOT 99 density matrix


Transition Multipole Moments:

 ------------------------------------------------------------------------------------
     Multipole            Electronic (a.u.)      Nuclear  (a.u.)        Total (a.u.)
 ------------------------------------------------------------------------------------

 L = 1.  Multiply by 2.5417464519 to convert [e a0] to [Debye]
 Dipole X            :         -0.0000000            0.0000000           -0.0000000
 Dipole Y            :         -0.0000000            0.0000000           -0.0000000
 Dipole Z            :          0.0029314            0.0000000            0.0029314
 Magnitude           :                                                    0.0029314

 ------------------------------------------------------------------------------------
  ## AO Mux (Symmetry 0) ##
  Irrep: 1 Size: 10 x 10

                 1                   2                   3                   4                   5

    1     0.00000000000000     0.00000000000000    -0.51848333168869     0.00000000000000     0.00000000000000
    2     0.00000000000000     0.00000000000000    -0.45387881636667     0.00000000000000     0.00000000000000
    3    -0.51848333168869    -0.45387881636667     0.00000000000000     0.00000000000000     0.00000000000000
    4     0.00000000000000     0.00000000000000     0.00000000000000     0.00000000000000     0.00000000000000
    5     0.00000000000000     0.00000000000000     0.00000000000000     0.00000000000000     0.00000000000000
    6     0.00000000000000     0.00000000000000    -0.10589152970763     0.00000000000000     0.00000000000000
    7     0.00000000000000     0.00000000000000    -0.33764446280209     0.00000000000000     0.00000000000000
    8    -0.20630088442457    -0.33645809966360     0.00000000000000     0.00000000000000    -0.22626472316325
    9     0.00000000000000     0.00000000000000     0.00000000000000     0.00000000000000     0.00000000000000
   10     0.00000000000000     0.00000000000000     0.22626472316325     0.00000000000000     0.00000000000000

                 6                   7                   8                   9                  10

    1     0.00000000000000     0.00000000000000    -0.20630088442457     0.00000000000000     0.00000000000000
    2     0.00000000000000     0.00000000000000    -0.33645809966360     0.00000000000000     0.00000000000000
    3    -0.10589152970763    -0.33764446280209     0.00000000000000     0.00000000000000     0.22626472316325
    4     0.00000000000000     0.00000000000000     0.00000000000000     0.00000000000000     0.00000000000000
    5     0.00000000000000     0.00000000000000    -0.22626472316325     0.00000000000000     0.00000000000000
    6     0.00000000000000     0.00000000000000    -0.37947116364547     0.00000000000000     0.00000000000000
    7     0.00000000000000     0.00000000000000    -0.55612027327789     0.00000000000000     0.00000000000000
    8    -0.37947116364547    -0.55612027327789     0.00000000000000     0.00000000000000     0.00000000000000
    9     0.00000000000000     0.00000000000000     0.00000000000000     0.00000000000000     0.00000000000000
   10     0.00000000000000     0.00000000000000     0.00000000000000     0.00000000000000     0.00000000000000



  ## AO Muy (Symmetry 0) ##
  Irrep: 1 Size: 10 x 10

                 1                   2                   3                   4                   5

    1     0.00000000000000     0.00000000000000     0.00000000000000    -0.51848333168869     0.00000000000000
    2     0.00000000000000     0.00000000000000     0.00000000000000    -0.45387881636667     0.00000000000000
    3     0.00000000000000     0.00000000000000     0.00000000000000     0.00000000000000     0.00000000000000
    4    -0.51848333168869    -0.45387881636667     0.00000000000000     0.00000000000000     0.00000000000000
    5     0.00000000000000     0.00000000000000     0.00000000000000     0.00000000000000     0.00000000000000
    6     0.00000000000000     0.00000000000000     0.00000000000000    -0.10589152970763     0.00000000000000
    7     0.00000000000000     0.00000000000000     0.00000000000000    -0.33764446280209     0.00000000000000
    8     0.00000000000000     0.00000000000000     0.00000000000000     0.00000000000000     0.00000000000000
    9    -0.20630088442457    -0.33645809966360     0.00000000000000     0.00000000000000    -0.22626472316325
   10     0.00000000000000     0.00000000000000     0.00000000000000     0.22626472316325     0.00000000000000

                 6                   7                   8                   9                  10

    1     0.00000000000000     0.00000000000000     0.00000000000000    -0.20630088442457     0.00000000000000
    2     0.00000000000000     0.00000000000000     0.00000000000000    -0.33645809966360     0.00000000000000
    3     0.00000000000000     0.00000000000000     0.00000000000000     0.00000000000000     0.00000000000000
    4    -0.10589152970763    -0.33764446280209     0.00000000000000     0.00000000000000     0.22626472316325
    5     0.00000000000000     0.00000000000000     0.00000000000000    -0.22626472316325     0.00000000000000
    6     0.00000000000000     0.00000000000000     0.00000000000000    -0.37947116364547     0.00000000000000
    7     0.00000000000000     0.00000000000000     0.00000000000000    -0.55612027327789     0.00000000000000
    8     0.00000000000000     0.00000000000000     0.00000000000000     0.00000000000000     0.00000000000000
    9    -0.37947116364547    -0.55612027327789     0.00000000000000     0.00000000000000     0.00000000000000
   10     0.00000000000000     0.00000000000000     0.00000000000000     0.00000000000000     0.00000000000000



  ## AO Muz (Symmetry 0) ##
  Irrep: 1 Size: 10 x 10

                 1                   2                   3                   4                   5

    1     0.72943428442672     0.48018078995363     0.00000000000000     0.00000000000000    -0.51848333168869
    2     0.48018078995363     0.72943428442672     0.00000000000000     0.00000000000000    -0.45387881636667
    3     0.00000000000000     0.00000000000000     0.72943428442672     0.00000000000000     0.00000000000000
    4     0.00000000000000     0.00000000000000     0.00000000000000     0.72943428442672     0.00000000000000
    5    -0.51848333168869    -0.45387881636667     0.00000000000000     0.00000000000000     0.72943428442672
    6    -0.06649052713651    -0.19241535006026     0.00000000000000     0.00000000000000    -0.15312640958149
    7     0.16291841013117    -0.16208271113832     0.00000000000000     0.00000000000000    -0.21480055101119
    8     0.00000000000000     0.00000000000000     0.00000000000000     0.00000000000000     0.00000000000000
    9     0.00000000000000     0.00000000000000     0.00000000000000     0.00000000000000     0.00000000000000
   10    -0.16390614713841    -0.25050446416046     0.00000000000000     0.00000000000000     0.00000000000000

                 6                   7                   8                   9                  10

    1    -0.06649052713651     0.16291841013117     0.00000000000000     0.00000000000000    -0.16390614713841
    2    -0.19241535006026    -0.16208271113832     0.00000000000000     0.00000000000000    -0.25050446416046
    3     0.00000000000000     0.00000000000000     0.00000000000000     0.00000000000000     0.00000000000000
    4     0.00000000000000     0.00000000000000     0.00000000000000     0.00000000000000     0.00000000000000
    5    -0.15312640958149    -0.21480055101119     0.00000000000000     0.00000000000000     0.00000000000000
    6    -0.72943428442672    -0.46256910197892     0.00000000000000     0.00000000000000    -0.37947116364547
    7    -0.46256910197892    -0.72943428442672     0.00000000000000     0.00000000000000    -0.55612027327789
    8     0.00000000000000     0.00000000000000    -0.72943428442672     0.00000000000000     0.00000000000000
    9     0.00000000000000     0.00000000000000     0.00000000000000    -0.72943428442672     0.00000000000000
   10    -0.37947116364547    -0.55612027327789     0.00000000000000     0.00000000000000    -0.72943428442672




    Psi4 stopped on: Tuesday, 23 December 2025 02:59PM
    Psi4 wall time for execution: 0:00:01.77

*** Psi4 exiting successfully. Buy a developer a beer!
