
Host: gnode010.cluster

Timers On : Mon Aug 18 06:19:08 2025
Timers Off: Mon Aug 18 06:19:10 2025

Wall Time:        2.09 seconds

                                                       Time (seconds)
Module                                       User      System        Wall        Calls
Total PK formation time             :      0.000u      0.000s      0.002w      1 calls
Libint2ERI::Libint2ERI              :      0.000u      0.000s      0.000w      3 calls
HF: Form core H                     :      0.000u      0.000s      0.004w      1 calls
HF: Form S/X                        :      0.000u      0.000s      0.000w      1 calls
HF: Guess                           :      0.033u      0.000s      0.017w      1 calls
SAD Guess                           :      0.033u      0.000s      0.016w      1 calls
HF: Form G                          :      0.000u      0.000s      0.000w      7 calls
JK: D                               :      0.000u      0.000s      0.000w      7 calls
JK: USO2AO                          :      0.000u      0.000s      0.000w      7 calls
JK: JK                              :      0.000u      0.000s      0.000w      7 calls
PK computes JK                      :      0.000u      0.000s      0.000w      7 calls
JK: AO2USO                          :      0.000u      0.000s      0.000w      7 calls
HF: Form F                          :      0.000u      0.000s      0.000w      7 calls
HF: Form D                          :      0.000u      0.000s      0.000w      7 calls
HF: DIIS                            :      0.083u      0.033s      0.191w      6 calls
HF: Form C                          :      0.000u      0.000s      0.001w      6 calls
CIWave: CIvect write                :      0.000u      0.000s      0.000w      4 calls
CIWave: opdm                        :      0.000u      0.000s      0.000w      2 calls
CIWave: CIvect read                 :      0.000u      0.000s      0.000w     24 calls

--------------------------------------------------------------------------------------
Total PK formation time             :      0.000u      0.000s      0.002w      1 calls
| Libint2ERI::Libint2ERI            :      0.000u      0.000s      0.000w      2 calls
HF: Form core H                     :      0.000u      0.000s      0.004w      1 calls
HF: Form S/X                        :      0.000u      0.000s      0.000w      1 calls
HF: Guess                           :      0.033u      0.000s      0.017w      1 calls
| SAD Guess                         :      0.033u      0.000s      0.016w      1 calls
HF: Form G                          :      0.000u      0.000s      0.000w      7 calls
| JK: D                             :      0.000u      0.000s      0.000w      7 calls
| JK: USO2AO                        :      0.000u      0.000s      0.000w      7 calls
| JK: JK                            :      0.000u      0.000s      0.000w      7 calls
| | PK computes JK                  :      0.000u      0.000s      0.000w      7 calls
| JK: AO2USO                        :      0.000u      0.000s      0.000w      7 calls
HF: Form F                          :      0.000u      0.000s      0.000w      7 calls
HF: Form D                          :      0.000u      0.000s      0.000w      7 calls
HF: DIIS                            :      0.083u      0.033s      0.191w      6 calls
HF: Form C                          :      0.000u      0.000s      0.001w      6 calls
Libint2ERI::Libint2ERI              :      0.000u      0.000s      0.000w      1 calls
CIWave: CIvect write                :      0.000u      0.000s      0.000w      4 calls
CIWave: opdm                        :      0.000u      0.000s      0.000w      2 calls
| CIWave: CIvect read               :      0.000u      0.000s      0.000w     20 calls
CIWave: CIvect read                 :      0.000u      0.000s      0.000w      4 calls

**************************************************************************************

Host: gnode010.cluster

Timers On : Mon Aug 18 06:20:37 2025
Timers Off: Mon Aug 18 06:20:39 2025

Wall Time:        1.81 seconds

                                                       Time (seconds)
Module                                       User      System        Wall        Calls
Total PK formation time             :      0.000u      0.000s      0.002w      1 calls
Libint2ERI::Libint2ERI              :      0.000u      0.000s      0.000w      3 calls
HF: Form core H                     :      0.000u      0.000s      0.004w      1 calls
HF: Form S/X                        :      0.000u      0.000s      0.000w      1 calls
HF: Guess                           :      0.033u      0.000s      0.017w      1 calls
SAD Guess                           :      0.033u      0.000s      0.016w      1 calls
HF: Form G                          :      0.000u      0.000s      0.000w      7 calls
JK: D                               :      0.000u      0.000s      0.000w      7 calls
JK: USO2AO                          :      0.000u      0.000s      0.000w      7 calls
JK: JK                              :      0.000u      0.000s      0.000w      7 calls
PK computes JK                      :      0.000u      0.000s      0.000w      7 calls
JK: AO2USO                          :      0.000u      0.000s      0.000w      7 calls
HF: Form F                          :      0.000u      0.000s      0.000w      7 calls
HF: Form D                          :      0.000u      0.000s      0.000w      7 calls
HF: DIIS                            :      0.067u      0.017s      0.138w      6 calls
HF: Form C                          :      0.000u      0.000s      0.001w      6 calls
CIWave: CIvect write                :      0.000u      0.000s      0.000w      4 calls
CIWave: opdm                        :      0.000u      0.000s      0.000w      2 calls
CIWave: CIvect read                 :      0.000u      0.000s      0.000w     24 calls

--------------------------------------------------------------------------------------
Total PK formation time             :      0.000u      0.000s      0.002w      1 calls
| Libint2ERI::Libint2ERI            :      0.000u      0.000s      0.000w      2 calls
HF: Form core H                     :      0.000u      0.000s      0.004w      1 calls
HF: Form S/X                        :      0.000u      0.000s      0.000w      1 calls
HF: Guess                           :      0.033u      0.000s      0.017w      1 calls
| SAD Guess                         :      0.033u      0.000s      0.016w      1 calls
HF: Form G                          :      0.000u      0.000s      0.000w      7 calls
| JK: D                             :      0.000u      0.000s      0.000w      7 calls
| JK: USO2AO                        :      0.000u      0.000s      0.000w      7 calls
| JK: JK                            :      0.000u      0.000s      0.000w      7 calls
| | PK computes JK                  :      0.000u      0.000s      0.000w      7 calls
| JK: AO2USO                        :      0.000u      0.000s      0.000w      7 calls
HF: Form F                          :      0.000u      0.000s      0.000w      7 calls
HF: Form D                          :      0.000u      0.000s      0.000w      7 calls
HF: DIIS                            :      0.067u      0.017s      0.138w      6 calls
HF: Form C                          :      0.000u      0.000s      0.001w      6 calls
Libint2ERI::Libint2ERI              :      0.000u      0.000s      0.000w      1 calls
CIWave: CIvect write                :      0.000u      0.000s      0.000w      4 calls
CIWave: opdm                        :      0.000u      0.000s      0.000w      2 calls
| CIWave: CIvect read               :      0.000u      0.000s      0.000w     20 calls
CIWave: CIvect read                 :      0.000u      0.000s      0.000w      4 calls

**************************************************************************************

Host: gnode010.cluster

Timers On : Mon Aug 18 06:22:59 2025
Timers Off: Mon Aug 18 06:23:00 2025

Wall Time:        1.79 seconds

                                                       Time (seconds)
Module                                       User      System        Wall        Calls
Total PK formation time             :      0.000u      0.000s      0.002w      1 calls
Libint2ERI::Libint2ERI              :      0.000u      0.000s      0.000w      3 calls
HF: Form core H                     :      0.000u      0.000s      0.004w      1 calls
HF: Form S/X                        :      0.000u      0.000s      0.000w      1 calls
HF: Guess                           :      0.033u      0.000s      0.017w      1 calls
SAD Guess                           :      0.033u      0.000s      0.016w      1 calls
HF: Form G                          :      0.000u      0.000s      0.000w      7 calls
JK: D                               :      0.000u      0.000s      0.000w      7 calls
JK: USO2AO                          :      0.000u      0.000s      0.000w      7 calls
JK: JK                              :      0.000u      0.000s      0.000w      7 calls
PK computes JK                      :      0.000u      0.000s      0.000w      7 calls
JK: AO2USO                          :      0.000u      0.000s      0.000w      7 calls
HF: Form F                          :      0.000u      0.000s      0.000w      7 calls
HF: Form D                          :      0.000u      0.000s      0.000w      7 calls
HF: DIIS                            :      0.083u      0.017s      0.137w      6 calls
HF: Form C                          :      0.000u      0.000s      0.001w      6 calls
CIWave: CIvect write                :      0.000u      0.000s      0.000w      4 calls
CIWave: opdm                        :      0.000u      0.000s      0.000w      2 calls
CIWave: CIvect read                 :      0.000u      0.000s      0.000w     24 calls

--------------------------------------------------------------------------------------
Total PK formation time             :      0.000u      0.000s      0.002w      1 calls
| Libint2ERI::Libint2ERI            :      0.000u      0.000s      0.000w      2 calls
HF: Form core H                     :      0.000u      0.000s      0.004w      1 calls
HF: Form S/X                        :      0.000u      0.000s      0.000w      1 calls
HF: Guess                           :      0.033u      0.000s      0.017w      1 calls
| SAD Guess                         :      0.033u      0.000s      0.016w      1 calls
HF: Form G                          :      0.000u      0.000s      0.000w      7 calls
| JK: D                             :      0.000u      0.000s      0.000w      7 calls
| JK: USO2AO                        :      0.000u      0.000s      0.000w      7 calls
| JK: JK                            :      0.000u      0.000s      0.000w      7 calls
| | PK computes JK                  :      0.000u      0.000s      0.000w      7 calls
| JK: AO2USO                        :      0.000u      0.000s      0.000w      7 calls
HF: Form F                          :      0.000u      0.000s      0.000w      7 calls
HF: Form D                          :      0.000u      0.000s      0.000w      7 calls
HF: DIIS                            :      0.083u      0.017s      0.137w      6 calls
HF: Form C                          :      0.000u      0.000s      0.001w      6 calls
Libint2ERI::Libint2ERI              :      0.000u      0.000s      0.000w      1 calls
CIWave: CIvect write                :      0.000u      0.000s      0.000w      4 calls
CIWave: opdm                        :      0.000u      0.000s      0.000w      2 calls
| CIWave: CIvect read               :      0.000u      0.000s      0.000w     20 calls
CIWave: CIvect read                 :      0.000u      0.000s      0.000w      4 calls

**************************************************************************************

Host: gnode010.cluster

Timers On : Mon Aug 18 06:24:00 2025
Timers Off: Mon Aug 18 06:24:02 2025

Wall Time:        1.52 seconds

                                                       Time (seconds)
Module                                       User      System        Wall        Calls
Total PK formation time             :      0.000u      0.000s      0.002w      1 calls
Libint2ERI::Libint2ERI              :      0.000u      0.000s      0.000w      3 calls
HF: Form core H                     :      0.017u      0.000s      0.004w      1 calls
HF: Form S/X                        :      0.000u      0.000s      0.000w      1 calls
HF: Guess                           :      0.017u      0.000s      0.017w      1 calls
SAD Guess                           :      0.017u      0.000s      0.016w      1 calls
HF: Form G                          :      0.000u      0.000s      0.000w      7 calls
JK: D                               :      0.000u      0.000s      0.000w      7 calls
JK: USO2AO                          :      0.000u      0.000s      0.000w      7 calls
JK: JK                              :      0.000u      0.000s      0.000w      7 calls
PK computes JK                      :      0.000u      0.000s      0.000w      7 calls
JK: AO2USO                          :      0.000u      0.000s      0.000w      7 calls
HF: Form F                          :      0.000u      0.000s      0.000w      7 calls
HF: Form D                          :      0.000u      0.000s      0.000w      7 calls
HF: DIIS                            :      0.067u      0.017s      0.133w      6 calls
HF: Form C                          :      0.000u      0.000s      0.001w      6 calls
CIWave: CIvect write                :      0.000u      0.000s      0.000w      4 calls
CIWave: opdm                        :      0.000u      0.000s      0.000w      2 calls
CIWave: CIvect read                 :      0.000u      0.000s      0.000w     24 calls

--------------------------------------------------------------------------------------
Total PK formation time             :      0.000u      0.000s      0.002w      1 calls
| Libint2ERI::Libint2ERI            :      0.000u      0.000s      0.000w      2 calls
HF: Form core H                     :      0.017u      0.000s      0.004w      1 calls
HF: Form S/X                        :      0.000u      0.000s      0.000w      1 calls
HF: Guess                           :      0.017u      0.000s      0.017w      1 calls
| SAD Guess                         :      0.017u      0.000s      0.016w      1 calls
HF: Form G                          :      0.000u      0.000s      0.000w      7 calls
| JK: D                             :      0.000u      0.000s      0.000w      7 calls
| JK: USO2AO                        :      0.000u      0.000s      0.000w      7 calls
| JK: JK                            :      0.000u      0.000s      0.000w      7 calls
| | PK computes JK                  :      0.000u      0.000s      0.000w      7 calls
| JK: AO2USO                        :      0.000u      0.000s      0.000w      7 calls
HF: Form F                          :      0.000u      0.000s      0.000w      7 calls
HF: Form D                          :      0.000u      0.000s      0.000w      7 calls
HF: DIIS                            :      0.067u      0.017s      0.133w      6 calls
HF: Form C                          :      0.000u      0.000s      0.001w      6 calls
Libint2ERI::Libint2ERI              :      0.000u      0.000s      0.000w      1 calls
CIWave: CIvect write                :      0.000u      0.000s      0.000w      4 calls
CIWave: opdm                        :      0.000u      0.000s      0.000w      2 calls
| CIWave: CIvect read               :      0.000u      0.000s      0.000w     20 calls
CIWave: CIvect read                 :      0.000u      0.000s      0.000w      4 calls

**************************************************************************************

Host: gnode010.cluster

Timers On : Mon Aug 18 06:25:03 2025
Timers Off: Mon Aug 18 06:25:04 2025

Wall Time:        1.75 seconds

                                                       Time (seconds)
Module                                       User      System        Wall        Calls
Total PK formation time             :      0.000u      0.000s      0.002w      1 calls
Libint2ERI::Libint2ERI              :      0.000u      0.000s      0.000w      3 calls
HF: Form core H                     :      0.000u      0.000s      0.004w      1 calls
HF: Form S/X                        :      0.000u      0.000s      0.000w      1 calls
HF: Guess                           :      0.017u      0.000s      0.017w      1 calls
SAD Guess                           :      0.017u      0.000s      0.016w      1 calls
HF: Form G                          :      0.000u      0.000s      0.000w      7 calls
JK: D                               :      0.000u      0.000s      0.000w      7 calls
JK: USO2AO                          :      0.000u      0.000s      0.000w      7 calls
JK: JK                              :      0.000u      0.000s      0.000w      7 calls
PK computes JK                      :      0.000u      0.000s      0.000w      7 calls
JK: AO2USO                          :      0.000u      0.000s      0.000w      7 calls
HF: Form F                          :      0.000u      0.000s      0.000w      7 calls
HF: Form D                          :      0.000u      0.000s      0.000w      7 calls
HF: DIIS                            :      0.050u      0.017s      0.129w      6 calls
HF: Form C                          :      0.000u      0.000s      0.001w      6 calls
CIWave: CIvect write                :      0.000u      0.000s      0.000w      4 calls
CIWave: opdm                        :      0.000u      0.000s      0.000w      2 calls
CIWave: CIvect read                 :      0.000u      0.000s      0.000w     24 calls

--------------------------------------------------------------------------------------
Total PK formation time             :      0.000u      0.000s      0.002w      1 calls
| Libint2ERI::Libint2ERI            :      0.000u      0.000s      0.000w      2 calls
HF: Form core H                     :      0.000u      0.000s      0.004w      1 calls
HF: Form S/X                        :      0.000u      0.000s      0.000w      1 calls
HF: Guess                           :      0.017u      0.000s      0.017w      1 calls
| SAD Guess                         :      0.017u      0.000s      0.016w      1 calls
HF: Form G                          :      0.000u      0.000s      0.000w      7 calls
| JK: D                             :      0.000u      0.000s      0.000w      7 calls
| JK: USO2AO                        :      0.000u      0.000s      0.000w      7 calls
| JK: JK                            :      0.000u      0.000s      0.000w      7 calls
| | PK computes JK                  :      0.000u      0.000s      0.000w      7 calls
| JK: AO2USO                        :      0.000u      0.000s      0.000w      7 calls
HF: Form F                          :      0.000u      0.000s      0.000w      7 calls
HF: Form D                          :      0.000u      0.000s      0.000w      7 calls
HF: DIIS                            :      0.050u      0.017s      0.129w      6 calls
HF: Form C                          :      0.000u      0.000s      0.001w      6 calls
Libint2ERI::Libint2ERI              :      0.000u      0.000s      0.000w      1 calls
CIWave: CIvect write                :      0.000u      0.000s      0.000w      4 calls
CIWave: opdm                        :      0.000u      0.000s      0.000w      2 calls
| CIWave: CIvect read               :      0.000u      0.000s      0.000w     20 calls
CIWave: CIvect read                 :      0.000u      0.000s      0.000w      4 calls

**************************************************************************************

Host: gnode010.cluster

Timers On : Mon Aug 18 06:27:56 2025
Timers Off: Mon Aug 18 06:27:57 2025

Wall Time:        1.65 seconds

                                                       Time (seconds)
Module                                       User      System        Wall        Calls
Total PK formation time             :      0.017u      0.000s      0.002w      1 calls
Libint2ERI::Libint2ERI              :      0.017u      0.000s      0.000w      3 calls
HF: Form core H                     :      0.000u      0.000s      0.004w      1 calls
HF: Form S/X                        :      0.000u      0.000s      0.000w      1 calls
HF: Guess                           :      0.017u      0.000s      0.017w      1 calls
SAD Guess                           :      0.017u      0.000s      0.016w      1 calls
HF: Form G                          :      0.000u      0.000s      0.000w      7 calls
JK: D                               :      0.000u      0.000s      0.000w      7 calls
JK: USO2AO                          :      0.000u      0.000s      0.000w      7 calls
JK: JK                              :      0.000u      0.000s      0.000w      7 calls
PK computes JK                      :      0.000u      0.000s      0.000w      7 calls
JK: AO2USO                          :      0.000u      0.000s      0.000w      7 calls
HF: Form F                          :      0.000u      0.000s      0.000w      7 calls
HF: Form D                          :      0.000u      0.000s      0.000w      7 calls
HF: DIIS                            :      0.050u      0.017s      0.109w      6 calls
HF: Form C                          :      0.017u      0.000s      0.001w      6 calls
CIWave: CIvect write                :      0.000u      0.000s      0.000w      4 calls
CIWave: opdm                        :      0.000u      0.000s      0.000w      2 calls
CIWave: CIvect read                 :      0.000u      0.000s      0.000w     24 calls

--------------------------------------------------------------------------------------
Total PK formation time             :      0.017u      0.000s      0.002w      1 calls
| Libint2ERI::Libint2ERI            :      0.017u      0.000s      0.000w      2 calls
HF: Form core H                     :      0.000u      0.000s      0.004w      1 calls
HF: Form S/X                        :      0.000u      0.000s      0.000w      1 calls
HF: Guess                           :      0.017u      0.000s      0.017w      1 calls
| SAD Guess                         :      0.017u      0.000s      0.016w      1 calls
HF: Form G                          :      0.000u      0.000s      0.000w      7 calls
| JK: D                             :      0.000u      0.000s      0.000w      7 calls
| JK: USO2AO                        :      0.000u      0.000s      0.000w      7 calls
| JK: JK                            :      0.000u      0.000s      0.000w      7 calls
| | PK computes JK                  :      0.000u      0.000s      0.000w      7 calls
| JK: AO2USO                        :      0.000u      0.000s      0.000w      7 calls
HF: Form F                          :      0.000u      0.000s      0.000w      7 calls
HF: Form D                          :      0.000u      0.000s      0.000w      7 calls
HF: DIIS                            :      0.050u      0.017s      0.109w      6 calls
HF: Form C                          :      0.017u      0.000s      0.001w      6 calls
Libint2ERI::Libint2ERI              :      0.000u      0.000s      0.000w      1 calls
CIWave: CIvect write                :      0.000u      0.000s      0.000w      4 calls
CIWave: opdm                        :      0.000u      0.000s      0.000w      2 calls
| CIWave: CIvect read               :      0.000u      0.000s      0.000w     20 calls
CIWave: CIvect read                 :      0.000u      0.000s      0.000w      4 calls

**************************************************************************************

Host: gnode010.cluster

Timers On : Mon Aug 18 06:28:24 2025
Timers Off: Mon Aug 18 06:28:25 2025

Wall Time:        1.49 seconds

                                                       Time (seconds)
Module                                       User      System        Wall        Calls
Total PK formation time             :      0.000u      0.000s      0.002w      1 calls
Libint2ERI::Libint2ERI              :      0.000u      0.000s      0.000w      3 calls
HF: Form core H                     :      0.000u      0.000s      0.004w      1 calls
HF: Form S/X                        :      0.000u      0.000s      0.000w      1 calls
HF: Guess                           :      0.033u      0.000s      0.017w      1 calls
SAD Guess                           :      0.033u      0.000s      0.016w      1 calls
HF: Form G                          :      0.000u      0.000s      0.000w      7 calls
JK: D                               :      0.000u      0.000s      0.000w      7 calls
JK: USO2AO                          :      0.000u      0.000s      0.000w      7 calls
JK: JK                              :      0.000u      0.000s      0.000w      7 calls
PK computes JK                      :      0.000u      0.000s      0.000w      7 calls
JK: AO2USO                          :      0.000u      0.000s      0.000w      7 calls
HF: Form F                          :      0.000u      0.000s      0.000w      7 calls
HF: Form D                          :      0.000u      0.000s      0.000w      7 calls
HF: DIIS                            :      0.083u      0.017s      0.094w      6 calls
HF: Form C                          :      0.000u      0.017s      0.001w      6 calls
CIWave: CIvect write                :      0.000u      0.000s      0.000w      4 calls
CIWave: opdm                        :      0.000u      0.000s      0.000w      2 calls
CIWave: CIvect read                 :      0.000u      0.000s      0.000w     24 calls

--------------------------------------------------------------------------------------
Total PK formation time             :      0.000u      0.000s      0.002w      1 calls
| Libint2ERI::Libint2ERI            :      0.000u      0.000s      0.000w      2 calls
HF: Form core H                     :      0.000u      0.000s      0.004w      1 calls
HF: Form S/X                        :      0.000u      0.000s      0.000w      1 calls
HF: Guess                           :      0.033u      0.000s      0.017w      1 calls
| SAD Guess                         :      0.033u      0.000s      0.016w      1 calls
HF: Form G                          :      0.000u      0.000s      0.000w      7 calls
| JK: D                             :      0.000u      0.000s      0.000w      7 calls
| JK: USO2AO                        :      0.000u      0.000s      0.000w      7 calls
| JK: JK                            :      0.000u      0.000s      0.000w      7 calls
| | PK computes JK                  :      0.000u      0.000s      0.000w      7 calls
| JK: AO2USO                        :      0.000u      0.000s      0.000w      7 calls
HF: Form F                          :      0.000u      0.000s      0.000w      7 calls
HF: Form D                          :      0.000u      0.000s      0.000w      7 calls
HF: DIIS                            :      0.083u      0.017s      0.094w      6 calls
HF: Form C                          :      0.000u      0.017s      0.001w      6 calls
Libint2ERI::Libint2ERI              :      0.000u      0.000s      0.000w      1 calls
CIWave: CIvect write                :      0.000u      0.000s      0.000w      4 calls
CIWave: opdm                        :      0.000u      0.000s      0.000w      2 calls
| CIWave: CIvect read               :      0.000u      0.000s      0.000w     20 calls
CIWave: CIvect read                 :      0.000u      0.000s      0.000w      4 calls

**************************************************************************************

Host: gnode010.cluster

Timers On : Mon Aug 18 06:28:36 2025
Timers Off: Mon Aug 18 06:28:38 2025

Wall Time:        1.46 seconds

                                                       Time (seconds)
Module                                       User      System        Wall        Calls
Total PK formation time             :      0.000u      0.000s      0.002w      1 calls
Libint2ERI::Libint2ERI              :      0.000u      0.000s      0.000w      3 calls
HF: Form core H                     :      0.000u      0.000s      0.004w      1 calls
HF: Form S/X                        :      0.000u      0.000s      0.000w      1 calls
HF: Guess                           :      0.033u      0.000s      0.017w      1 calls
SAD Guess                           :      0.033u      0.000s      0.016w      1 calls
HF: Form G                          :      0.000u      0.000s      0.000w      7 calls
JK: D                               :      0.000u      0.000s      0.000w      7 calls
JK: USO2AO                          :      0.000u      0.000s      0.000w      7 calls
JK: JK                              :      0.000u      0.000s      0.000w      7 calls
PK computes JK                      :      0.000u      0.000s      0.000w      7 calls
JK: AO2USO                          :      0.000u      0.000s      0.000w      7 calls
HF: Form F                          :      0.000u      0.000s      0.000w      7 calls
HF: Form D                          :      0.000u      0.000s      0.000w      7 calls
HF: DIIS                            :      0.050u      0.017s      0.093w      6 calls
HF: Form C                          :      0.000u      0.000s      0.001w      6 calls
CIWave: CIvect write                :      0.000u      0.000s      0.000w      4 calls
CIWave: opdm                        :      0.000u      0.000s      0.000w      2 calls
CIWave: CIvect read                 :      0.000u      0.000s      0.000w     24 calls

--------------------------------------------------------------------------------------
Total PK formation time             :      0.000u      0.000s      0.002w      1 calls
| Libint2ERI::Libint2ERI            :      0.000u      0.000s      0.000w      2 calls
HF: Form core H                     :      0.000u      0.000s      0.004w      1 calls
HF: Form S/X                        :      0.000u      0.000s      0.000w      1 calls
HF: Guess                           :      0.033u      0.000s      0.017w      1 calls
| SAD Guess                         :      0.033u      0.000s      0.016w      1 calls
HF: Form G                          :      0.000u      0.000s      0.000w      7 calls
| JK: D                             :      0.000u      0.000s      0.000w      7 calls
| JK: USO2AO                        :      0.000u      0.000s      0.000w      7 calls
| JK: JK                            :      0.000u      0.000s      0.000w      7 calls
| | PK computes JK                  :      0.000u      0.000s      0.000w      7 calls
| JK: AO2USO                        :      0.000u      0.000s      0.000w      7 calls
HF: Form F                          :      0.000u      0.000s      0.000w      7 calls
HF: Form D                          :      0.000u      0.000s      0.000w      7 calls
HF: DIIS                            :      0.050u      0.017s      0.093w      6 calls
HF: Form C                          :      0.000u      0.000s      0.001w      6 calls
Libint2ERI::Libint2ERI              :      0.000u      0.000s      0.000w      1 calls
CIWave: CIvect write                :      0.000u      0.000s      0.000w      4 calls
CIWave: opdm                        :      0.000u      0.000s      0.000w      2 calls
| CIWave: CIvect read               :      0.000u      0.000s      0.000w     20 calls
CIWave: CIvect read                 :      0.000u      0.000s      0.000w      4 calls

**************************************************************************************

Host: gnode010.cluster

Timers On : Mon Aug 18 06:28:51 2025
Timers Off: Mon Aug 18 06:28:53 2025

Wall Time:        1.47 seconds

                                                       Time (seconds)
Module                                       User      System        Wall        Calls
Total PK formation time             :      0.000u      0.000s      0.002w      1 calls
Libint2ERI::Libint2ERI              :      0.000u      0.000s      0.000w      3 calls
HF: Form core H                     :      0.000u      0.000s      0.004w      1 calls
HF: Form S/X                        :      0.000u      0.000s      0.000w      1 calls
HF: Guess                           :      0.033u      0.000s      0.017w      1 calls
SAD Guess                           :      0.033u      0.000s      0.016w      1 calls
HF: Form G                          :      0.000u      0.000s      0.000w      7 calls
JK: D                               :      0.000u      0.000s      0.000w      7 calls
JK: USO2AO                          :      0.000u      0.000s      0.000w      7 calls
JK: JK                              :      0.000u      0.000s      0.000w      7 calls
PK computes JK                      :      0.000u      0.000s      0.000w      7 calls
JK: AO2USO                          :      0.000u      0.000s      0.000w      7 calls
HF: Form F                          :      0.000u      0.000s      0.000w      7 calls
HF: Form D                          :      0.000u      0.000s      0.000w      7 calls
HF: DIIS                            :      0.083u      0.017s      0.093w      6 calls
HF: Form C                          :      0.000u      0.000s      0.001w      6 calls
CIWave: CIvect write                :      0.000u      0.000s      0.000w      4 calls
CIWave: opdm                        :      0.000u      0.000s      0.000w      2 calls
CIWave: CIvect read                 :      0.000u      0.000s      0.000w     24 calls

--------------------------------------------------------------------------------------
Total PK formation time             :      0.000u      0.000s      0.002w      1 calls
| Libint2ERI::Libint2ERI            :      0.000u      0.000s      0.000w      2 calls
HF: Form core H                     :      0.000u      0.000s      0.004w      1 calls
HF: Form S/X                        :      0.000u      0.000s      0.000w      1 calls
HF: Guess                           :      0.033u      0.000s      0.017w      1 calls
| SAD Guess                         :      0.033u      0.000s      0.016w      1 calls
HF: Form G                          :      0.000u      0.000s      0.000w      7 calls
| JK: D                             :      0.000u      0.000s      0.000w      7 calls
| JK: USO2AO                        :      0.000u      0.000s      0.000w      7 calls
| JK: JK                            :      0.000u      0.000s      0.000w      7 calls
| | PK computes JK                  :      0.000u      0.000s      0.000w      7 calls
| JK: AO2USO                        :      0.000u      0.000s      0.000w      7 calls
HF: Form F                          :      0.000u      0.000s      0.000w      7 calls
HF: Form D                          :      0.000u      0.000s      0.000w      7 calls
HF: DIIS                            :      0.083u      0.017s      0.093w      6 calls
HF: Form C                          :      0.000u      0.000s      0.001w      6 calls
Libint2ERI::Libint2ERI              :      0.000u      0.000s      0.000w      1 calls
CIWave: CIvect write                :      0.000u      0.000s      0.000w      4 calls
CIWave: opdm                        :      0.000u      0.000s      0.000w      2 calls
| CIWave: CIvect read               :      0.000u      0.000s      0.000w     20 calls
CIWave: CIvect read                 :      0.000u      0.000s      0.000w      4 calls

**************************************************************************************

Host: gnode010.cluster

Timers On : Mon Aug 18 06:29:11 2025
Timers Off: Mon Aug 18 06:29:12 2025

Wall Time:        1.47 seconds

                                                       Time (seconds)
Module                                       User      System        Wall        Calls
Total PK formation time             :      0.000u      0.000s      0.002w      1 calls
Libint2ERI::Libint2ERI              :      0.000u      0.000s      0.000w      3 calls
HF: Form core H                     :      0.000u      0.000s      0.004w      1 calls
HF: Form S/X                        :      0.000u      0.000s      0.000w      1 calls
HF: Guess                           :      0.033u      0.000s      0.017w      1 calls
SAD Guess                           :      0.033u      0.000s      0.016w      1 calls
HF: Form G                          :      0.000u      0.000s      0.000w      7 calls
JK: D                               :      0.000u      0.000s      0.000w      7 calls
JK: USO2AO                          :      0.000u      0.000s      0.000w      7 calls
JK: JK                              :      0.000u      0.000s      0.000w      7 calls
PK computes JK                      :      0.000u      0.000s      0.000w      7 calls
JK: AO2USO                          :      0.000u      0.000s      0.000w      7 calls
HF: Form F                          :      0.000u      0.000s      0.000w      7 calls
HF: Form D                          :      0.000u      0.000s      0.000w      7 calls
HF: DIIS                            :      0.083u      0.000s      0.123w      6 calls
HF: Form C                          :      0.000u      0.000s      0.001w      6 calls
CIWave: CIvect write                :      0.000u      0.000s      0.000w      4 calls
CIWave: opdm                        :      0.000u      0.000s      0.000w      2 calls
CIWave: CIvect read                 :      0.000u      0.000s      0.000w     24 calls

--------------------------------------------------------------------------------------
Total PK formation time             :      0.000u      0.000s      0.002w      1 calls
| Libint2ERI::Libint2ERI            :      0.000u      0.000s      0.000w      2 calls
HF: Form core H                     :      0.000u      0.000s      0.004w      1 calls
HF: Form S/X                        :      0.000u      0.000s      0.000w      1 calls
HF: Guess                           :      0.033u      0.000s      0.017w      1 calls
| SAD Guess                         :      0.033u      0.000s      0.016w      1 calls
HF: Form G                          :      0.000u      0.000s      0.000w      7 calls
| JK: D                             :      0.000u      0.000s      0.000w      7 calls
| JK: USO2AO                        :      0.000u      0.000s      0.000w      7 calls
| JK: JK                            :      0.000u      0.000s      0.000w      7 calls
| | PK computes JK                  :      0.000u      0.000s      0.000w      7 calls
| JK: AO2USO                        :      0.000u      0.000s      0.000w      7 calls
HF: Form F                          :      0.000u      0.000s      0.000w      7 calls
HF: Form D                          :      0.000u      0.000s      0.000w      7 calls
HF: DIIS                            :      0.083u      0.000s      0.123w      6 calls
HF: Form C                          :      0.000u      0.000s      0.001w      6 calls
Libint2ERI::Libint2ERI              :      0.000u      0.000s      0.000w      1 calls
CIWave: CIvect write                :      0.000u      0.000s      0.000w      4 calls
CIWave: opdm                        :      0.000u      0.000s      0.000w      2 calls
| CIWave: CIvect read               :      0.000u      0.000s      0.000w     20 calls
CIWave: CIvect read                 :      0.000u      0.000s      0.000w      4 calls

**************************************************************************************

Host: gnode010.cluster

Timers On : Mon Aug 18 06:29:22 2025
Timers Off: Mon Aug 18 06:29:23 2025

Wall Time:        1.41 seconds

                                                       Time (seconds)
Module                                       User      System        Wall        Calls
Total PK formation time             :      0.000u      0.000s      0.002w      1 calls
Libint2ERI::Libint2ERI              :      0.000u      0.000s      0.000w      3 calls
HF: Form core H                     :      0.000u      0.000s      0.004w      1 calls
HF: Form S/X                        :      0.000u      0.000s      0.000w      1 calls
HF: Guess                           :      0.033u      0.000s      0.017w      1 calls
SAD Guess                           :      0.033u      0.000s      0.016w      1 calls
HF: Form G                          :      0.000u      0.000s      0.000w      7 calls
JK: D                               :      0.000u      0.000s      0.000w      7 calls
JK: USO2AO                          :      0.000u      0.000s      0.000w      7 calls
JK: JK                              :      0.000u      0.000s      0.000w      7 calls
PK computes JK                      :      0.000u      0.000s      0.000w      7 calls
JK: AO2USO                          :      0.000u      0.000s      0.000w      7 calls
HF: Form F                          :      0.000u      0.000s      0.000w      7 calls
HF: Form D                          :      0.000u      0.000s      0.000w      7 calls
HF: DIIS                            :      0.067u      0.017s      0.094w      6 calls
HF: Form C                          :      0.000u      0.000s      0.001w      6 calls
CIWave: CIvect write                :      0.000u      0.000s      0.000w      4 calls
CIWave: opdm                        :      0.000u      0.000s      0.000w      2 calls
CIWave: CIvect read                 :      0.000u      0.000s      0.000w     24 calls

--------------------------------------------------------------------------------------
Total PK formation time             :      0.000u      0.000s      0.002w      1 calls
| Libint2ERI::Libint2ERI            :      0.000u      0.000s      0.000w      2 calls
HF: Form core H                     :      0.000u      0.000s      0.004w      1 calls
HF: Form S/X                        :      0.000u      0.000s      0.000w      1 calls
HF: Guess                           :      0.033u      0.000s      0.017w      1 calls
| SAD Guess                         :      0.033u      0.000s      0.016w      1 calls
HF: Form G                          :      0.000u      0.000s      0.000w      7 calls
| JK: D                             :      0.000u      0.000s      0.000w      7 calls
| JK: USO2AO                        :      0.000u      0.000s      0.000w      7 calls
| JK: JK                            :      0.000u      0.000s      0.000w      7 calls
| | PK computes JK                  :      0.000u      0.000s      0.000w      7 calls
| JK: AO2USO                        :      0.000u      0.000s      0.000w      7 calls
HF: Form F                          :      0.000u      0.000s      0.000w      7 calls
HF: Form D                          :      0.000u      0.000s      0.000w      7 calls
HF: DIIS                            :      0.067u      0.017s      0.094w      6 calls
HF: Form C                          :      0.000u      0.000s      0.001w      6 calls
Libint2ERI::Libint2ERI              :      0.000u      0.000s      0.000w      1 calls
CIWave: CIvect write                :      0.000u      0.000s      0.000w      4 calls
CIWave: opdm                        :      0.000u      0.000s      0.000w      2 calls
| CIWave: CIvect read               :      0.000u      0.000s      0.000w     20 calls
CIWave: CIvect read                 :      0.000u      0.000s      0.000w      4 calls

**************************************************************************************

Host: gnode010.cluster

Timers On : Mon Aug 18 06:29:33 2025
Timers Off: Mon Aug 18 06:29:35 2025

Wall Time:        1.31 seconds

                                                       Time (seconds)
Module                                       User      System        Wall        Calls
Total PK formation time             :      0.000u      0.000s      0.002w      1 calls
Libint2ERI::Libint2ERI              :      0.000u      0.000s      0.000w      3 calls
HF: Form core H                     :      0.000u      0.000s      0.004w      1 calls
HF: Form S/X                        :      0.000u      0.000s      0.000w      1 calls
HF: Guess                           :      0.033u      0.000s      0.017w      1 calls
SAD Guess                           :      0.017u      0.000s      0.016w      1 calls
HF: Form G                          :      0.000u      0.000s      0.000w      7 calls
JK: D                               :      0.000u      0.000s      0.000w      7 calls
JK: USO2AO                          :      0.000u      0.000s      0.000w      7 calls
JK: JK                              :      0.000u      0.000s      0.000w      7 calls
PK computes JK                      :      0.000u      0.000s      0.000w      7 calls
JK: AO2USO                          :      0.000u      0.000s      0.000w      7 calls
HF: Form F                          :      0.000u      0.000s      0.000w      7 calls
HF: Form D                          :      0.000u      0.000s      0.000w      7 calls
HF: DIIS                            :      0.083u      0.017s      0.092w      6 calls
HF: Form C                          :      0.000u      0.000s      0.001w      6 calls
CIWave: CIvect write                :      0.000u      0.000s      0.000w      4 calls
CIWave: opdm                        :      0.000u      0.000s      0.000w      2 calls
CIWave: CIvect read                 :      0.000u      0.000s      0.000w     24 calls

--------------------------------------------------------------------------------------
Total PK formation time             :      0.000u      0.000s      0.002w      1 calls
| Libint2ERI::Libint2ERI            :      0.000u      0.000s      0.000w      2 calls
HF: Form core H                     :      0.000u      0.000s      0.004w      1 calls
HF: Form S/X                        :      0.000u      0.000s      0.000w      1 calls
HF: Guess                           :      0.033u      0.000s      0.017w      1 calls
| SAD Guess                         :      0.017u      0.000s      0.016w      1 calls
HF: Form G                          :      0.000u      0.000s      0.000w      7 calls
| JK: D                             :      0.000u      0.000s      0.000w      7 calls
| JK: USO2AO                        :      0.000u      0.000s      0.000w      7 calls
| JK: JK                            :      0.000u      0.000s      0.000w      7 calls
| | PK computes JK                  :      0.000u      0.000s      0.000w      7 calls
| JK: AO2USO                        :      0.000u      0.000s      0.000w      7 calls
HF: Form F                          :      0.000u      0.000s      0.000w      7 calls
HF: Form D                          :      0.000u      0.000s      0.000w      7 calls
HF: DIIS                            :      0.083u      0.017s      0.092w      6 calls
HF: Form C                          :      0.000u      0.000s      0.001w      6 calls
Libint2ERI::Libint2ERI              :      0.000u      0.000s      0.000w      1 calls
CIWave: CIvect write                :      0.000u      0.000s      0.000w      4 calls
CIWave: opdm                        :      0.000u      0.000s      0.000w      2 calls
| CIWave: CIvect read               :      0.000u      0.000s      0.000w     20 calls
CIWave: CIvect read                 :      0.000u      0.000s      0.000w      4 calls

**************************************************************************************

Host: gnode010.cluster

Timers On : Mon Aug 18 06:30:03 2025
Timers Off: Mon Aug 18 06:30:04 2025

Wall Time:        1.36 seconds

                                                       Time (seconds)
Module                                       User      System        Wall        Calls
Total PK formation time             :      0.000u      0.000s      0.002w      1 calls
Libint2ERI::Libint2ERI              :      0.000u      0.000s      0.000w      3 calls
HF: Form core H                     :      0.000u      0.017s      0.004w      1 calls
HF: Form S/X                        :      0.000u      0.000s      0.000w      1 calls
HF: Guess                           :      0.033u      0.000s      0.017w      1 calls
SAD Guess                           :      0.033u      0.000s      0.016w      1 calls
HF: Form G                          :      0.000u      0.000s      0.000w      7 calls
JK: D                               :      0.000u      0.000s      0.000w      7 calls
JK: USO2AO                          :      0.000u      0.000s      0.000w      7 calls
JK: JK                              :      0.000u      0.000s      0.000w      7 calls
PK computes JK                      :      0.000u      0.000s      0.000w      7 calls
JK: AO2USO                          :      0.000u      0.000s      0.000w      7 calls
HF: Form F                          :      0.000u      0.000s      0.000w      7 calls
HF: Form D                          :      0.000u      0.000s      0.000w      7 calls
HF: DIIS                            :      0.067u      0.000s      0.094w      6 calls
HF: Form C                          :      0.017u      0.000s      0.001w      6 calls
CIWave: CIvect write                :      0.000u      0.000s      0.000w      4 calls
CIWave: opdm                        :      0.000u      0.000s      0.000w      2 calls
CIWave: CIvect read                 :      0.000u      0.000s      0.000w     24 calls

--------------------------------------------------------------------------------------
Total PK formation time             :      0.000u      0.000s      0.002w      1 calls
| Libint2ERI::Libint2ERI            :      0.000u      0.000s      0.000w      2 calls
HF: Form core H                     :      0.000u      0.017s      0.004w      1 calls
HF: Form S/X                        :      0.000u      0.000s      0.000w      1 calls
HF: Guess                           :      0.033u      0.000s      0.017w      1 calls
| SAD Guess                         :      0.033u      0.000s      0.016w      1 calls
HF: Form G                          :      0.000u      0.000s      0.000w      7 calls
| JK: D                             :      0.000u      0.000s      0.000w      7 calls
| JK: USO2AO                        :      0.000u      0.000s      0.000w      7 calls
| JK: JK                            :      0.000u      0.000s      0.000w      7 calls
| | PK computes JK                  :      0.000u      0.000s      0.000w      7 calls
| JK: AO2USO                        :      0.000u      0.000s      0.000w      7 calls
HF: Form F                          :      0.000u      0.000s      0.000w      7 calls
HF: Form D                          :      0.000u      0.000s      0.000w      7 calls
HF: DIIS                            :      0.067u      0.000s      0.094w      6 calls
HF: Form C                          :      0.017u      0.000s      0.001w      6 calls
Libint2ERI::Libint2ERI              :      0.000u      0.000s      0.000w      1 calls
CIWave: CIvect write                :      0.000u      0.000s      0.000w      4 calls
CIWave: opdm                        :      0.000u      0.000s      0.000w      2 calls
| CIWave: CIvect read               :      0.000u      0.000s      0.000w     20 calls
CIWave: CIvect read                 :      0.000u      0.000s      0.000w      4 calls

**************************************************************************************

Host: gnode010.cluster

Timers On : Mon Aug 18 06:30:18 2025
Timers Off: Mon Aug 18 06:30:19 2025

Wall Time:        1.70 seconds

                                                       Time (seconds)
Module                                       User      System        Wall        Calls
Total PK formation time             :      0.017u      0.000s      0.002w      1 calls
Libint2ERI::Libint2ERI              :      0.000u      0.000s      0.000w      3 calls
HF: Form core H                     :      0.000u      0.000s      0.003w      1 calls
HF: Form S/X                        :      0.000u      0.000s      0.000w      1 calls
HF: Guess                           :      0.017u      0.000s      0.017w      1 calls
SAD Guess                           :      0.017u      0.000s      0.016w      1 calls
HF: Form G                          :      0.000u      0.000s      0.000w      7 calls
JK: D                               :      0.000u      0.000s      0.000w      7 calls
JK: USO2AO                          :      0.000u      0.000s      0.000w      7 calls
JK: JK                              :      0.000u      0.000s      0.000w      7 calls
PK computes JK                      :      0.000u      0.000s      0.000w      7 calls
JK: AO2USO                          :      0.000u      0.000s      0.000w      7 calls
HF: Form F                          :      0.000u      0.000s      0.000w      7 calls
HF: Form D                          :      0.000u      0.000s      0.000w      7 calls
HF: DIIS                            :      0.050u      0.017s      0.125w      6 calls
HF: Form C                          :      0.000u      0.000s      0.001w      6 calls
CIWave: CIvect write                :      0.000u      0.000s      0.000w      4 calls
CIWave: opdm                        :      0.000u      0.000s      0.000w      2 calls
CIWave: CIvect read                 :      0.000u      0.000s      0.000w     24 calls

--------------------------------------------------------------------------------------
Total PK formation time             :      0.017u      0.000s      0.002w      1 calls
| Libint2ERI::Libint2ERI            :      0.000u      0.000s      0.000w      2 calls
HF: Form core H                     :      0.000u      0.000s      0.003w      1 calls
HF: Form S/X                        :      0.000u      0.000s      0.000w      1 calls
HF: Guess                           :      0.017u      0.000s      0.017w      1 calls
| SAD Guess                         :      0.017u      0.000s      0.016w      1 calls
HF: Form G                          :      0.000u      0.000s      0.000w      7 calls
| JK: D                             :      0.000u      0.000s      0.000w      7 calls
| JK: USO2AO                        :      0.000u      0.000s      0.000w      7 calls
| JK: JK                            :      0.000u      0.000s      0.000w      7 calls
| | PK computes JK                  :      0.000u      0.000s      0.000w      7 calls
| JK: AO2USO                        :      0.000u      0.000s      0.000w      7 calls
HF: Form F                          :      0.000u      0.000s      0.000w      7 calls
HF: Form D                          :      0.000u      0.000s      0.000w      7 calls
HF: DIIS                            :      0.050u      0.017s      0.125w      6 calls
HF: Form C                          :      0.000u      0.000s      0.001w      6 calls
Libint2ERI::Libint2ERI              :      0.000u      0.000s      0.000w      1 calls
CIWave: CIvect write                :      0.000u      0.000s      0.000w      4 calls
CIWave: opdm                        :      0.000u      0.000s      0.000w      2 calls
| CIWave: CIvect read               :      0.000u      0.000s      0.000w     20 calls
CIWave: CIvect read                 :      0.000u      0.000s      0.000w      4 calls

**************************************************************************************

Host: gnode010.cluster

Timers On : Mon Aug 18 06:30:48 2025
Timers Off: Mon Aug 18 06:30:49 2025

Wall Time:        1.45 seconds

                                                       Time (seconds)
Module                                       User      System        Wall        Calls
Total PK formation time             :      0.000u      0.000s      0.002w      1 calls
Libint2ERI::Libint2ERI              :      0.000u      0.000s      0.000w      3 calls
HF: Form core H                     :      0.017u      0.000s      0.004w      1 calls
HF: Form S/X                        :      0.000u      0.000s      0.000w      1 calls
HF: Guess                           :      0.017u      0.017s      0.017w      1 calls
SAD Guess                           :      0.017u      0.017s      0.016w      1 calls
HF: Form G                          :      0.000u      0.000s      0.000w      7 calls
JK: D                               :      0.000u      0.000s      0.000w      7 calls
JK: USO2AO                          :      0.000u      0.000s      0.000w      7 calls
JK: JK                              :      0.000u      0.000s      0.000w      7 calls
PK computes JK                      :      0.000u      0.000s      0.000w      7 calls
JK: AO2USO                          :      0.000u      0.000s      0.000w      7 calls
HF: Form F                          :      0.000u      0.000s      0.000w      7 calls
HF: Form D                          :      0.000u      0.000s      0.000w      7 calls
HF: DIIS                            :      0.033u      0.000s      0.093w      6 calls
HF: Form C                          :      0.000u      0.000s      0.001w      6 calls
CIWave: CIvect write                :      0.000u      0.000s      0.000w      4 calls
CIWave: opdm                        :      0.000u      0.000s      0.000w      2 calls
CIWave: CIvect read                 :      0.000u      0.000s      0.000w     24 calls

--------------------------------------------------------------------------------------
Total PK formation time             :      0.000u      0.000s      0.002w      1 calls
| Libint2ERI::Libint2ERI            :      0.000u      0.000s      0.000w      2 calls
HF: Form core H                     :      0.017u      0.000s      0.004w      1 calls
HF: Form S/X                        :      0.000u      0.000s      0.000w      1 calls
HF: Guess                           :      0.017u      0.017s      0.017w      1 calls
| SAD Guess                         :      0.017u      0.017s      0.016w      1 calls
HF: Form G                          :      0.000u      0.000s      0.000w      7 calls
| JK: D                             :      0.000u      0.000s      0.000w      7 calls
| JK: USO2AO                        :      0.000u      0.000s      0.000w      7 calls
| JK: JK                            :      0.000u      0.000s      0.000w      7 calls
| | PK computes JK                  :      0.000u      0.000s      0.000w      7 calls
| JK: AO2USO                        :      0.000u      0.000s      0.000w      7 calls
HF: Form F                          :      0.000u      0.000s      0.000w      7 calls
HF: Form D                          :      0.000u      0.000s      0.000w      7 calls
HF: DIIS                            :      0.033u      0.000s      0.093w      6 calls
HF: Form C                          :      0.000u      0.000s      0.001w      6 calls
Libint2ERI::Libint2ERI              :      0.000u      0.000s      0.000w      1 calls
CIWave: CIvect write                :      0.000u      0.000s      0.000w      4 calls
CIWave: opdm                        :      0.000u      0.000s      0.000w      2 calls
| CIWave: CIvect read               :      0.000u      0.000s      0.000w     20 calls
CIWave: CIvect read                 :      0.000u      0.000s      0.000w      4 calls

**************************************************************************************

Host: gnode010.cluster

Timers On : Mon Aug 18 07:00:33 2025
Timers Off: Mon Aug 18 07:00:35 2025

Wall Time:        1.85 seconds

                                                       Time (seconds)
Module                                       User      System        Wall        Calls
Total PK formation time             :      0.000u      0.000s      0.002w      1 calls
Libint2ERI::Libint2ERI              :      0.000u      0.000s      0.000w      3 calls
HF: Form core H                     :      0.000u      0.000s      0.004w      1 calls
HF: Form S/X                        :      0.000u      0.000s      0.000w      1 calls
HF: Guess                           :      0.033u      0.017s      0.017w      1 calls
SAD Guess                           :      0.033u      0.017s      0.016w      1 calls
HF: Form G                          :      0.000u      0.000s      0.000w      7 calls
JK: D                               :      0.000u      0.000s      0.000w      7 calls
JK: USO2AO                          :      0.000u      0.000s      0.000w      7 calls
JK: JK                              :      0.000u      0.000s      0.000w      7 calls
PK computes JK                      :      0.000u      0.000s      0.000w      7 calls
JK: AO2USO                          :      0.000u      0.000s      0.000w      7 calls
HF: Form F                          :      0.000u      0.000s      0.000w      7 calls
HF: Form D                          :      0.000u      0.000s      0.000w      7 calls
HF: DIIS                            :      0.067u      0.000s      0.137w      6 calls
HF: Form C                          :      0.000u      0.000s      0.001w      6 calls
CIWave: CIvect write                :      0.000u      0.000s      0.000w      4 calls
CIWave: opdm                        :      0.000u      0.000s      0.000w      2 calls
CIWave: CIvect read                 :      0.000u      0.000s      0.000w     24 calls

--------------------------------------------------------------------------------------
Total PK formation time             :      0.000u      0.000s      0.002w      1 calls
| Libint2ERI::Libint2ERI            :      0.000u      0.000s      0.000w      2 calls
HF: Form core H                     :      0.000u      0.000s      0.004w      1 calls
HF: Form S/X                        :      0.000u      0.000s      0.000w      1 calls
HF: Guess                           :      0.033u      0.017s      0.017w      1 calls
| SAD Guess                         :      0.033u      0.017s      0.016w      1 calls
HF: Form G                          :      0.000u      0.000s      0.000w      7 calls
| JK: D                             :      0.000u      0.000s      0.000w      7 calls
| JK: USO2AO                        :      0.000u      0.000s      0.000w      7 calls
| JK: JK                            :      0.000u      0.000s      0.000w      7 calls
| | PK computes JK                  :      0.000u      0.000s      0.000w      7 calls
| JK: AO2USO                        :      0.000u      0.000s      0.000w      7 calls
HF: Form F                          :      0.000u      0.000s      0.000w      7 calls
HF: Form D                          :      0.000u      0.000s      0.000w      7 calls
HF: DIIS                            :      0.067u      0.000s      0.137w      6 calls
HF: Form C                          :      0.000u      0.000s      0.001w      6 calls
Libint2ERI::Libint2ERI              :      0.000u      0.000s      0.000w      1 calls
CIWave: CIvect write                :      0.000u      0.000s      0.000w      4 calls
CIWave: opdm                        :      0.000u      0.000s      0.000w      2 calls
| CIWave: CIvect read               :      0.000u      0.000s      0.000w     20 calls
CIWave: CIvect read                 :      0.000u      0.000s      0.000w      4 calls

**************************************************************************************

Host: gnode010.cluster

Timers On : Mon Aug 18 07:00:47 2025
Timers Off: Mon Aug 18 07:00:49 2025

Wall Time:        1.44 seconds

                                                       Time (seconds)
Module                                       User      System        Wall        Calls
Total PK formation time             :      0.017u      0.000s      0.002w      1 calls
Libint2ERI::Libint2ERI              :      0.000u      0.000s      0.000w      3 calls
HF: Form core H                     :      0.000u      0.000s      0.003w      1 calls
HF: Form S/X                        :      0.000u      0.000s      0.000w      1 calls
HF: Guess                           :      0.017u      0.000s      0.017w      1 calls
SAD Guess                           :      0.017u      0.000s      0.016w      1 calls
HF: Form G                          :      0.000u      0.000s      0.000w      7 calls
JK: D                               :      0.000u      0.000s      0.000w      7 calls
JK: USO2AO                          :      0.000u      0.000s      0.000w      7 calls
JK: JK                              :      0.000u      0.000s      0.000w      7 calls
PK computes JK                      :      0.000u      0.000s      0.000w      7 calls
JK: AO2USO                          :      0.000u      0.000s      0.000w      7 calls
HF: Form F                          :      0.000u      0.000s      0.000w      7 calls
HF: Form D                          :      0.000u      0.000s      0.000w      7 calls
HF: DIIS                            :      0.050u      0.017s      0.090w      6 calls
HF: Form C                          :      0.000u      0.000s      0.001w      6 calls
CIWave: CIvect write                :      0.000u      0.000s      0.000w      4 calls
CIWave: opdm                        :      0.000u      0.000s      0.000w      2 calls
CIWave: CIvect read                 :      0.000u      0.000s      0.000w     24 calls

--------------------------------------------------------------------------------------
Total PK formation time             :      0.017u      0.000s      0.002w      1 calls
| Libint2ERI::Libint2ERI            :      0.000u      0.000s      0.000w      2 calls
HF: Form core H                     :      0.000u      0.000s      0.003w      1 calls
HF: Form S/X                        :      0.000u      0.000s      0.000w      1 calls
HF: Guess                           :      0.017u      0.000s      0.017w      1 calls
| SAD Guess                         :      0.017u      0.000s      0.016w      1 calls
HF: Form G                          :      0.000u      0.000s      0.000w      7 calls
| JK: D                             :      0.000u      0.000s      0.000w      7 calls
| JK: USO2AO                        :      0.000u      0.000s      0.000w      7 calls
| JK: JK                            :      0.000u      0.000s      0.000w      7 calls
| | PK computes JK                  :      0.000u      0.000s      0.000w      7 calls
| JK: AO2USO                        :      0.000u      0.000s      0.000w      7 calls
HF: Form F                          :      0.000u      0.000s      0.000w      7 calls
HF: Form D                          :      0.000u      0.000s      0.000w      7 calls
HF: DIIS                            :      0.050u      0.017s      0.090w      6 calls
HF: Form C                          :      0.000u      0.000s      0.001w      6 calls
Libint2ERI::Libint2ERI              :      0.000u      0.000s      0.000w      1 calls
CIWave: CIvect write                :      0.000u      0.000s      0.000w      4 calls
CIWave: opdm                        :      0.000u      0.000s      0.000w      2 calls
| CIWave: CIvect read               :      0.000u      0.000s      0.000w     20 calls
CIWave: CIvect read                 :      0.000u      0.000s      0.000w      4 calls

**************************************************************************************

Host: gnode010.cluster

Timers On : Mon Aug 18 07:09:10 2025
Timers Off: Mon Aug 18 07:09:12 2025

Wall Time:        1.82 seconds

                                                       Time (seconds)
Module                                       User      System        Wall        Calls
Total PK formation time             :      0.000u      0.000s      0.002w      1 calls
Libint2ERI::Libint2ERI              :      0.000u      0.000s      0.000w      3 calls
HF: Form core H                     :      0.000u      0.000s      0.004w      1 calls
HF: Form S/X                        :      0.000u      0.000s      0.000w      1 calls
HF: Guess                           :      0.017u      0.000s      0.017w      1 calls
SAD Guess                           :      0.017u      0.000s      0.016w      1 calls
HF: Form G                          :      0.000u      0.000s      0.000w      7 calls
JK: D                               :      0.000u      0.000s      0.000w      7 calls
JK: USO2AO                          :      0.000u      0.000s      0.000w      7 calls
JK: JK                              :      0.000u      0.000s      0.000w      7 calls
PK computes JK                      :      0.000u      0.000s      0.000w      7 calls
JK: AO2USO                          :      0.000u      0.000s      0.000w      7 calls
HF: Form F                          :      0.000u      0.000s      0.000w      7 calls
HF: Form D                          :      0.000u      0.000s      0.000w      7 calls
HF: DIIS                            :      0.083u      0.017s      0.122w      6 calls
HF: Form C                          :      0.000u      0.000s      0.001w      6 calls
CIWave: CIvect write                :      0.000u      0.000s      0.000w      4 calls
CIWave: opdm                        :      0.000u      0.000s      0.000w      2 calls
CIWave: CIvect read                 :      0.000u      0.000s      0.000w     24 calls

--------------------------------------------------------------------------------------
Total PK formation time             :      0.000u      0.000s      0.002w      1 calls
| Libint2ERI::Libint2ERI            :      0.000u      0.000s      0.000w      2 calls
HF: Form core H                     :      0.000u      0.000s      0.004w      1 calls
HF: Form S/X                        :      0.000u      0.000s      0.000w      1 calls
HF: Guess                           :      0.017u      0.000s      0.017w      1 calls
| SAD Guess                         :      0.017u      0.000s      0.016w      1 calls
HF: Form G                          :      0.000u      0.000s      0.000w      7 calls
| JK: D                             :      0.000u      0.000s      0.000w      7 calls
| JK: USO2AO                        :      0.000u      0.000s      0.000w      7 calls
| JK: JK                            :      0.000u      0.000s      0.000w      7 calls
| | PK computes JK                  :      0.000u      0.000s      0.000w      7 calls
| JK: AO2USO                        :      0.000u      0.000s      0.000w      7 calls
HF: Form F                          :      0.000u      0.000s      0.000w      7 calls
HF: Form D                          :      0.000u      0.000s      0.000w      7 calls
HF: DIIS                            :      0.083u      0.017s      0.122w      6 calls
HF: Form C                          :      0.000u      0.000s      0.001w      6 calls
Libint2ERI::Libint2ERI              :      0.000u      0.000s      0.000w      1 calls
CIWave: CIvect write                :      0.000u      0.000s      0.000w      4 calls
CIWave: opdm                        :      0.000u      0.000s      0.000w      2 calls
| CIWave: CIvect read               :      0.000u      0.000s      0.000w     20 calls
CIWave: CIvect read                 :      0.000u      0.000s      0.000w      4 calls

**************************************************************************************

Host: gnode010.cluster

Timers On : Mon Aug 18 07:09:18 2025
Timers Off: Mon Aug 18 07:09:20 2025

Wall Time:        1.45 seconds

                                                       Time (seconds)
Module                                       User      System        Wall        Calls
Total PK formation time             :      0.000u      0.000s      0.002w      1 calls
Libint2ERI::Libint2ERI              :      0.000u      0.000s      0.000w      3 calls
HF: Form core H                     :      0.000u      0.000s      0.004w      1 calls
HF: Form S/X                        :      0.000u      0.000s      0.000w      1 calls
HF: Guess                           :      0.017u      0.017s      0.017w      1 calls
SAD Guess                           :      0.017u      0.017s      0.016w      1 calls
HF: Form G                          :      0.000u      0.000s      0.000w      7 calls
JK: D                               :      0.000u      0.000s      0.000w      7 calls
JK: USO2AO                          :      0.000u      0.000s      0.000w      7 calls
JK: JK                              :      0.000u      0.000s      0.000w      7 calls
PK computes JK                      :      0.000u      0.000s      0.000w      7 calls
JK: AO2USO                          :      0.000u      0.000s      0.000w      7 calls
HF: Form F                          :      0.000u      0.000s      0.000w      7 calls
HF: Form D                          :      0.000u      0.000s      0.000w      7 calls
HF: DIIS                            :      0.067u      0.000s      0.090w      6 calls
HF: Form C                          :      0.000u      0.000s      0.001w      6 calls
CIWave: CIvect write                :      0.000u      0.000s      0.000w      4 calls
CIWave: opdm                        :      0.000u      0.000s      0.000w      2 calls
CIWave: CIvect read                 :      0.000u      0.000s      0.000w     24 calls

--------------------------------------------------------------------------------------
Total PK formation time             :      0.000u      0.000s      0.002w      1 calls
| Libint2ERI::Libint2ERI            :      0.000u      0.000s      0.000w      2 calls
HF: Form core H                     :      0.000u      0.000s      0.004w      1 calls
HF: Form S/X                        :      0.000u      0.000s      0.000w      1 calls
HF: Guess                           :      0.017u      0.017s      0.017w      1 calls
| SAD Guess                         :      0.017u      0.017s      0.016w      1 calls
HF: Form G                          :      0.000u      0.000s      0.000w      7 calls
| JK: D                             :      0.000u      0.000s      0.000w      7 calls
| JK: USO2AO                        :      0.000u      0.000s      0.000w      7 calls
| JK: JK                            :      0.000u      0.000s      0.000w      7 calls
| | PK computes JK                  :      0.000u      0.000s      0.000w      7 calls
| JK: AO2USO                        :      0.000u      0.000s      0.000w      7 calls
HF: Form F                          :      0.000u      0.000s      0.000w      7 calls
HF: Form D                          :      0.000u      0.000s      0.000w      7 calls
HF: DIIS                            :      0.067u      0.000s      0.090w      6 calls
HF: Form C                          :      0.000u      0.000s      0.001w      6 calls
Libint2ERI::Libint2ERI              :      0.000u      0.000s      0.000w      1 calls
CIWave: CIvect write                :      0.000u      0.000s      0.000w      4 calls
CIWave: opdm                        :      0.000u      0.000s      0.000w      2 calls
| CIWave: CIvect read               :      0.000u      0.000s      0.000w     20 calls
CIWave: CIvect read                 :      0.000u      0.000s      0.000w      4 calls

**************************************************************************************

Host: gnode010.cluster

Timers On : Mon Aug 18 07:09:32 2025
Timers Off: Mon Aug 18 07:09:33 2025

Wall Time:        1.46 seconds

                                                       Time (seconds)
Module                                       User      System        Wall        Calls
Total PK formation time             :      0.000u      0.000s      0.002w      1 calls
Libint2ERI::Libint2ERI              :      0.000u      0.000s      0.000w      3 calls
HF: Form core H                     :      0.000u      0.000s      0.004w      1 calls
HF: Form S/X                        :      0.000u      0.000s      0.000w      1 calls
HF: Guess                           :      0.033u      0.000s      0.017w      1 calls
SAD Guess                           :      0.033u      0.000s      0.016w      1 calls
HF: Form G                          :      0.000u      0.000s      0.000w      7 calls
JK: D                               :      0.000u      0.000s      0.000w      7 calls
JK: USO2AO                          :      0.000u      0.000s      0.000w      7 calls
JK: JK                              :      0.000u      0.000s      0.000w      7 calls
PK computes JK                      :      0.000u      0.000s      0.000w      7 calls
JK: AO2USO                          :      0.000u      0.000s      0.000w      7 calls
HF: Form F                          :      0.000u      0.000s      0.000w      7 calls
HF: Form D                          :      0.000u      0.000s      0.000w      7 calls
HF: DIIS                            :      0.067u      0.017s      0.093w      6 calls
HF: Form C                          :      0.000u      0.000s      0.001w      6 calls
CIWave: CIvect write                :      0.000u      0.000s      0.000w      4 calls
CIWave: opdm                        :      0.000u      0.000s      0.000w      2 calls
CIWave: CIvect read                 :      0.000u      0.000s      0.000w     24 calls

--------------------------------------------------------------------------------------
Total PK formation time             :      0.000u      0.000s      0.002w      1 calls
| Libint2ERI::Libint2ERI            :      0.000u      0.000s      0.000w      2 calls
HF: Form core H                     :      0.000u      0.000s      0.004w      1 calls
HF: Form S/X                        :      0.000u      0.000s      0.000w      1 calls
HF: Guess                           :      0.033u      0.000s      0.017w      1 calls
| SAD Guess                         :      0.033u      0.000s      0.016w      1 calls
HF: Form G                          :      0.000u      0.000s      0.000w      7 calls
| JK: D                             :      0.000u      0.000s      0.000w      7 calls
| JK: USO2AO                        :      0.000u      0.000s      0.000w      7 calls
| JK: JK                            :      0.000u      0.000s      0.000w      7 calls
| | PK computes JK                  :      0.000u      0.000s      0.000w      7 calls
| JK: AO2USO                        :      0.000u      0.000s      0.000w      7 calls
HF: Form F                          :      0.000u      0.000s      0.000w      7 calls
HF: Form D                          :      0.000u      0.000s      0.000w      7 calls
HF: DIIS                            :      0.067u      0.017s      0.093w      6 calls
HF: Form C                          :      0.000u      0.000s      0.001w      6 calls
Libint2ERI::Libint2ERI              :      0.000u      0.000s      0.000w      1 calls
CIWave: CIvect write                :      0.000u      0.000s      0.000w      4 calls
CIWave: opdm                        :      0.000u      0.000s      0.000w      2 calls
| CIWave: CIvect read               :      0.000u      0.000s      0.000w     20 calls
CIWave: CIvect read                 :      0.000u      0.000s      0.000w      4 calls

**************************************************************************************

Host: gnode010.cluster

Timers On : Mon Aug 18 07:10:04 2025
Timers Off: Mon Aug 18 07:10:06 2025

Wall Time:        1.46 seconds

                                                       Time (seconds)
Module                                       User      System        Wall        Calls
Total PK formation time             :      0.017u      0.000s      0.002w      1 calls
Libint2ERI::Libint2ERI              :      0.000u      0.000s      0.000w      3 calls
HF: Form core H                     :      0.000u      0.000s      0.004w      1 calls
HF: Form S/X                        :      0.000u      0.000s      0.000w      1 calls
HF: Guess                           :      0.017u      0.000s      0.017w      1 calls
SAD Guess                           :      0.017u      0.000s      0.016w      1 calls
HF: Form G                          :      0.000u      0.000s      0.000w      7 calls
JK: D                               :      0.000u      0.000s      0.000w      7 calls
JK: USO2AO                          :      0.000u      0.000s      0.000w      7 calls
[...]
HF: Form F                          :      0.000u      0.000s      0.000w     12 calls
HF: Form D                          :      0.000u      0.000s      0.000w     12 calls
HF: DIIS                            :      0.083u      0.017s      0.091w     11 calls
HF: Form C                          :      0.000u      0.000s      0.003w     11 calls
Libint2ERI::Libint2ERI              :      0.000u      0.000s      0.001w      1 calls
CIWave: CIvect write                :      0.100u      0.067s      0.080w   3025 calls
CIWave: opdm                        :   2059.250u    156.517s   1330.928w      2 calls
| CIWave: CIvect read               :    173.617u     14.300s    114.697w 9153650 calls
CIWave: CIvect read                 :      0.100u      0.000s      0.044w   3025 calls

**************************************************************************************

Host: gnode010.cluster

Timers On : Sun Sep 14 12:24:17 2025
Timers Off: Sun Sep 14 12:24:21 2025

Wall Time:        4.01 seconds

                                                       Time (seconds)
Module                                       User      System        Wall        Calls
Total PK formation time             :      0.000u      0.017s      0.003w      1 calls
Libint2ERI::Libint2ERI              :      0.000u      0.017s      0.001w      3 calls
HF: Form core H                     :      0.000u      0.000s      0.004w      1 calls
HF: Form S/X                        :      0.000u      0.000s      0.000w      1 calls
HF: Guess                           :      0.017u      0.000s      0.020w      1 calls
SAD Guess                           :      0.017u      0.000s      0.019w      1 calls
HF: Form G                          :      0.000u      0.000s      0.000w      9 calls
JK: D                               :      0.000u      0.000s      0.000w      9 calls
JK: USO2AO                          :      0.000u      0.000s      0.000w      9 calls
JK: JK                              :      0.000u      0.000s      0.000w      9 calls
PK computes JK                      :      0.000u      0.000s      0.000w      9 calls
JK: AO2USO                          :      0.000u      0.000s      0.000w      9 calls
HF: Form F                          :      0.000u      0.000s      0.000w      9 calls
HF: Form D                          :      0.000u      0.000s      0.000w      9 calls
HF: DIIS                            :      0.067u      0.017s      0.138w      8 calls
HF: Form C                          :      0.000u      0.000s      0.002w      8 calls
CIWave: CIvect write                :      0.000u      0.000s      0.002w    225 calls
CIWave: opdm                        :      0.633u      0.633s      0.757w      2 calls
CIWave: CIvect read                 :      0.233u      0.150s      0.234w  51075 calls

--------------------------------------------------------------------------------------
Total PK formation time             :      0.000u      0.017s      0.003w      1 calls
| Libint2ERI::Libint2ERI            :      0.000u      0.017s      0.001w      2 calls
HF: Form core H                     :      0.000u      0.000s      0.004w      1 calls
HF: Form S/X                        :      0.000u      0.000s      0.000w      1 calls
HF: Guess                           :      0.017u      0.000s      0.020w      1 calls
| SAD Guess                         :      0.017u      0.000s      0.019w      1 calls
HF: Form G                          :      0.000u      0.000s      0.000w      9 calls
| JK: D                             :      0.000u      0.000s      0.000w      9 calls
| JK: USO2AO                        :      0.000u      0.000s      0.000w      9 calls
| JK: JK                            :      0.000u      0.000s      0.000w      9 calls
| | PK computes JK                  :      0.000u      0.000s      0.000w      9 calls
| JK: AO2USO                        :      0.000u      0.000s      0.000w      9 calls
HF: Form F                          :      0.000u      0.000s      0.000w      9 calls
HF: Form D                          :      0.000u      0.000s      0.000w      9 calls
HF: DIIS                            :      0.067u      0.017s      0.138w      8 calls
HF: Form C                          :      0.000u      0.000s      0.002w      8 calls
Libint2ERI::Libint2ERI              :      0.000u      0.000s      0.000w      1 calls
CIWave: CIvect write                :      0.000u      0.000s      0.002w    225 calls
CIWave: opdm                        :      0.633u      0.633s      0.757w      2 calls
| CIWave: CIvect read               :      0.233u      0.150s      0.232w  50850 calls
CIWave: CIvect read                 :      0.000u      0.000s      0.001w    225 calls

**************************************************************************************

Host: gnode010.cluster

Timers On : Sun Sep 14 12:24:57 2025
Timers Off: Sun Sep 14 12:24:58 2025

Wall Time:        1.47 seconds

                                                       Time (seconds)
Module                                       User      System        Wall        Calls
Total PK formation time             :      0.000u      0.000s      0.007w      1 calls
Libint2ERI::Libint2ERI              :      0.000u      0.000s      0.005w      3 calls
HF: Form core H                     :      0.000u      0.000s      0.004w      1 calls
HF: Form S/X                        :      0.000u      0.000s      0.000w      1 calls
HF: Guess                           :      0.033u      0.017s      0.023w      1 calls
SAD Guess                           :      0.033u      0.017s      0.021w      1 calls
HF: Form G                          :      0.000u      0.000s      0.001w     12 calls
JK: D                               :      0.000u      0.000s      0.000w     12 calls
JK: USO2AO                          :      0.000u      0.000s      0.000w     12 calls
JK: JK                              :      0.000u      0.000s      0.000w     12 calls
PK computes JK                      :      0.000u      0.000s      0.000w     12 calls
JK: AO2USO                          :      0.000u      0.000s      0.000w     12 calls
HF: Form F                          :      0.000u      0.000s      0.000w     12 calls
HF: Form D                          :      0.000u      0.000s      0.000w     12 calls
HF: DIIS                            :      0.083u      0.000s      0.088w     11 calls
HF: Form C                          :      0.000u      0.000s      0.003w     11 calls
CIWave: CIvect write                :      0.000u      0.000s      0.000w     17 calls
CIWave: opdm                        :      0.000u      0.017s      0.003w      2 calls
CIWave: CIvect read                 :      0.000u      0.000s      0.001w    323 calls

--------------------------------------------------------------------------------------
Total PK formation time             :      0.000u      0.000s      0.007w      1 calls
| Libint2ERI::Libint2ERI            :      0.000u      0.000s      0.004w      2 calls
HF: Form core H                     :      0.000u      0.000s      0.004w      1 calls
HF: Form S/X                        :      0.000u      0.000s      0.000w      1 calls
HF: Guess                           :      0.033u      0.017s      0.023w      1 calls
| SAD Guess                         :      0.033u      0.017s      0.021w      1 calls
HF: Form G                          :      0.000u      0.000s      0.001w     12 calls
| JK: D                             :      0.000u      0.000s      0.000w     12 calls
| JK: USO2AO                        :      0.000u      0.000s      0.000w     12 calls
| JK: JK                            :      0.000u      0.000s      0.000w     12 calls
| | PK computes JK                  :      0.000u      0.000s      0.000w     12 calls
| JK: AO2USO                        :      0.000u      0.000s      0.000w     12 calls
HF: Form F                          :      0.000u      0.000s      0.000w     12 calls
HF: Form D                          :      0.000u      0.000s      0.000w     12 calls
HF: DIIS                            :      0.083u      0.000s      0.088w     11 calls
HF: Form C                          :      0.000u      0.000s      0.003w     11 calls
Libint2ERI::Libint2ERI              :      0.000u      0.000s      0.001w      1 calls
CIWave: CIvect write                :      0.000u      0.000s      0.000w     17 calls
CIWave: opdm                        :      0.000u      0.017s      0.003w      2 calls
| CIWave: CIvect read               :      0.000u      0.000s      0.001w    306 calls
CIWave: CIvect read                 :      0.000u      0.000s      0.000w     17 calls

**************************************************************************************

Host: gnode010.cluster

Timers On : Sun Sep 14 12:25:29 2025
Timers Off: Sun Sep 14 12:25:30 2025

Wall Time:        1.79 seconds

                                                       Time (seconds)
Module                                       User      System        Wall        Calls
Total PK formation time             :      0.000u      0.000s      0.008w      1 calls
Libint2ERI::Libint2ERI              :      0.000u      0.017s      0.005w      3 calls
HF: Form core H                     :      0.000u      0.000s      0.004w      1 calls
HF: Form S/X                        :      0.000u      0.000s      0.000w      1 calls
HF: Guess                           :      0.033u      0.000s      0.023w      1 calls
SAD Guess                           :      0.033u      0.000s      0.022w      1 calls
HF: Form G                          :      0.000u      0.000s      0.001w     12 calls
JK: D                               :      0.000u      0.000s      0.000w     12 calls
JK: USO2AO                          :      0.000u      0.000s      0.000w     12 calls
JK: JK                              :      0.000u      0.000s      0.000w     12 calls
PK computes JK                      :      0.000u      0.000s      0.000w     12 calls
JK: AO2USO                          :      0.000u      0.000s      0.000w     12 calls
HF: Form F                          :      0.000u      0.000s      0.000w     12 calls
HF: Form D                          :      0.000u      0.000s      0.000w     12 calls
HF: DIIS                            :      0.083u      0.017s      0.127w     11 calls
HF: Form C                          :      0.000u      0.000s      0.003w     11 calls
CIWave: CIvect write                :      0.000u      0.000s      0.000w     37 calls
CIWave: opdm                        :      0.000u      0.017s      0.014w      2 calls
CIWave: CIvect read                 :      0.000u      0.000s      0.006w   1443 calls

--------------------------------------------------------------------------------------
Total PK formation time             :      0.000u      0.000s      0.008w      1 calls
| Libint2ERI::Libint2ERI            :      0.000u      0.000s      0.004w      2 calls
HF: Form core H                     :      0.000u      0.000s      0.004w      1 calls
HF: Form S/X                        :      0.000u      0.000s      0.000w      1 calls
HF: Guess                           :      0.033u      0.000s      0.023w      1 calls
| SAD Guess                         :      0.033u      0.000s      0.022w      1 calls
HF: Form G                          :      0.000u      0.000s      0.001w     12 calls
| JK: D                             :      0.000u      0.000s      0.000w     12 calls
| JK: USO2AO                        :      0.000u      0.000s      0.000w     12 calls
| JK: JK                            :      0.000u      0.000s      0.000w     12 calls
| | PK computes JK                  :      0.000u      0.000s      0.000w     12 calls
| JK: AO2USO                        :      0.000u      0.000s      0.000w     12 calls
HF: Form F                          :      0.000u      0.000s      0.000w     12 calls
HF: Form D                          :      0.000u      0.000s      0.000w     12 calls
HF: DIIS                            :      0.083u      0.017s      0.127w     11 calls
HF: Form C                          :      0.000u      0.000s      0.003w     11 calls
Libint2ERI::Libint2ERI              :      0.000u      0.017s      0.001w      1 calls
CIWave: CIvect write                :      0.000u      0.000s      0.000w     37 calls
CIWave: opdm                        :      0.000u      0.017s      0.014w      2 calls
| CIWave: CIvect read               :      0.000u      0.000s      0.006w   1406 calls
CIWave: CIvect read                 :      0.000u      0.000s      0.000w     37 calls

**************************************************************************************

Host: gnode010.cluster

Timers On : Sun Sep 14 12:25:39 2025
Timers Off: Sun Sep 14 12:25:41 2025

Wall Time:        1.48 seconds

                                                       Time (seconds)
Module                                       User      System        Wall        Calls
Total PK formation time             :      0.017u      0.000s      0.007w      1 calls
Libint2ERI::Libint2ERI              :      0.000u      0.000s      0.005w      3 calls
HF: Form core H                     :      0.000u      0.000s      0.004w      1 calls
HF: Form S/X                        :      0.000u      0.000s      0.000w      1 calls
HF: Guess                           :      0.033u      0.000s      0.023w      1 calls
SAD Guess                           :      0.033u      0.000s      0.022w      1 calls
HF: Form G                          :      0.017u      0.000s      0.001w     12 calls
JK: D                               :      0.000u      0.000s      0.000w     12 calls
JK: USO2AO                          :      0.000u      0.000s      0.000w     12 calls
JK: JK                              :      0.017u      0.000s      0.000w     12 calls
PK computes JK                      :      0.017u      0.000s      0.000w     12 calls
JK: AO2USO                          :      0.000u      0.000s      0.000w     12 calls
HF: Form F                          :      0.000u      0.000s      0.000w     12 calls
HF: Form D                          :      0.000u      0.000s      0.000w     12 calls
HF: DIIS                            :      0.083u      0.017s      0.108w     11 calls
HF: Form C                          :      0.000u      0.000s      0.003w     11 calls

--------------------------------------------------------------------------------------
Total PK formation time             :      0.017u      0.000s      0.007w      1 calls
| Libint2ERI::Libint2ERI            :      0.000u      0.000s      0.004w      2 calls
HF: Form core H                     :      0.000u      0.000s      0.004w      1 calls
HF: Form S/X                        :      0.000u      0.000s      0.000w      1 calls
HF: Guess                           :      0.033u      0.000s      0.023w      1 calls
| SAD Guess                         :      0.033u      0.000s      0.022w      1 calls
HF: Form G                          :      0.017u      0.000s      0.001w     12 calls
| JK: D                             :      0.000u      0.000s      0.000w     12 calls
| JK: USO2AO                        :      0.000u      0.000s      0.000w     12 calls
| JK: JK                            :      0.017u      0.000s      0.000w     12 calls
| | PK computes JK                  :      0.017u      0.000s      0.000w     12 calls
| JK: AO2USO                        :      0.000u      0.000s      0.000w     12 calls
HF: Form F                          :      0.000u      0.000s      0.000w     12 calls
HF: Form D                          :      0.000u      0.000s      0.000w     12 calls
HF: DIIS                            :      0.083u      0.017s      0.108w     11 calls
HF: Form C                          :      0.000u      0.000s      0.003w     11 calls
Libint2ERI::Libint2ERI              :      0.000u      0.000s      0.001w      1 calls

**************************************************************************************

Host: gnode010.cluster

Timers On : Sun Sep 14 12:25:54 2025
Timers Off: Sun Sep 14 12:25:56 2025

Wall Time:        1.56 seconds

                                                       Time (seconds)
Module                                       User      System        Wall        Calls
Total PK formation time             :      0.017u      0.017s      0.007w      1 calls
Libint2ERI::Libint2ERI              :      0.000u      0.017s      0.005w      3 calls
HF: Form core H                     :      0.000u      0.000s      0.007w      1 calls
HF: Form S/X                        :      0.000u      0.000s      0.000w      1 calls
HF: Guess                           :      0.017u      0.017s      0.023w      1 calls
SAD Guess                           :      0.017u      0.017s      0.022w      1 calls
HF: Form G                          :      0.017u      0.000s      0.001w     12 calls
JK: D                               :      0.017u      0.000s      0.000w     12 calls
JK: USO2AO                          :      0.000u      0.000s      0.000w     12 calls
JK: JK                              :      0.000u      0.000s      0.000w     12 calls
PK computes JK                      :      0.000u      0.000s      0.000w     12 calls
JK: AO2USO                          :      0.000u      0.000s      0.000w     12 calls
HF: Form F                          :      0.000u      0.000s      0.000w     12 calls
HF: Form D                          :      0.000u      0.000s      0.000w     12 calls
HF: DIIS                            :      0.050u      0.000s      0.104w     11 calls
HF: Form C                          :      0.017u      0.000s      0.003w     11 calls
CIWave: CIvect write                :      0.000u      0.000s      0.000w     37 calls
CIWave: opdm                        :      0.017u      0.000s      0.014w      2 calls
CIWave: CIvect read                 :      0.000u      0.000s      0.006w   1443 calls

--------------------------------------------------------------------------------------
Total PK formation time             :      0.017u      0.017s      0.007w      1 calls
| Libint2ERI::Libint2ERI            :      0.000u      0.017s      0.004w      2 calls
HF: Form core H                     :      0.000u      0.000s      0.007w      1 calls
HF: Form S/X                        :      0.000u      0.000s      0.000w      1 calls
HF: Guess                           :      0.017u      0.017s      0.023w      1 calls
| SAD Guess                         :      0.017u      0.017s      0.022w      1 calls
HF: Form G                          :      0.017u      0.000s      0.001w     12 calls
| JK: D                             :      0.017u      0.000s      0.000w     12 calls
| JK: USO2AO                        :      0.000u      0.000s      0.000w     12 calls
| JK: JK                            :      0.000u      0.000s      0.000w     12 calls
| | PK computes JK                  :      0.000u      0.000s      0.000w     12 calls
| JK: AO2USO                        :      0.000u      0.000s      0.000w     12 calls
HF: Form F                          :      0.000u      0.000s      0.000w     12 calls
HF: Form D                          :      0.000u      0.000s      0.000w     12 calls
HF: DIIS                            :      0.050u      0.000s      0.104w     11 calls
HF: Form C                          :      0.017u      0.000s      0.003w     11 calls
Libint2ERI::Libint2ERI              :      0.000u      0.000s      0.001w      1 calls
CIWave: CIvect write                :      0.000u      0.000s      0.000w     37 calls
CIWave: opdm                        :      0.017u      0.000s      0.014w      2 calls
| CIWave: CIvect read               :      0.000u      0.000s      0.006w   1406 calls
CIWave: CIvect read                 :      0.000u      0.000s      0.000w     37 calls

**************************************************************************************
