
    -----------------------------------------------------------------------
          Psi4: An Open-Source Ab Initio Electronic Structure Package
                               Psi4 1.9.1 release

                         Git: Rev {} zzzzzzz 


    D. G. A. Smith, L. A. Burns, A. C. Simmonett, R. M. Parrish,
    M. C. Schieber, R. Galvelis, P. Kraus, H. Kruse, R. Di Remigio,
    A. Alenaizan, A. M. James, S. Lehtola, J. P. Misiewicz, M. Scheurer,
    R. A. Shaw, J. B. Schriber, Y. Xie, Z. L. Glick, D. A. Sirianni,
    J. S. O'Brien, J. M. Waldrop, A. Kumar, E. G. Hohenstein,
    B. P. Pritchard, B. R. Brooks, H. F. Schaefer III, A. Yu. Sokolov,
    K. Patkowski, A. E. DePrince III, U. Bozkaya, R. A. King,
    F. A. Evangelista, J. M. Turney, T. D. Crawford, C. D. Sherrill,
    J. Chem. Phys. 152(18) 184108 (2020). https://doi.org/10.1063/5.0006002

                            Additional Code Authors
    E. T. Seidl, C. L. Janssen, E. F. Valeev, M. L. Leininger,
    J. F. Gonthier, R. M. Richard, H. R. McAlexander, M. Saitow, X. Wang,
    P. Verma, M. H. Lechner, A. Jiang, S. Behnle, A. G. Heide,
    M. F. Herbst, and D. L. Poole

             Previous Authors, Complete List of Code Contributors,
                       and Citations for Specific Modules
    https://github.com/psi4/psi4/blob/master/codemeta.json
    https://github.com/psi4/psi4/graphs/contributors
    http://psicode.org/psi4manual/master/introduction.html#citing-psifour

    -----------------------------------------------------------------------


    Psi4 started on: Sunday, 17 August 2025 06:21PM

    Process ID: 1445541
    Host:       gnode010.cluster
    PSIDATADIR: /home/hbhat/psi4conda/share/psi4
    Memory:     500.0 MiB
    Threads:    1
    
  ==> Input File <==

--------------------------------------------------------------------------
molecule h2 {
H  0.       0.      -0.37
H  0.       0.       0.37
symmetry c1
no_com
no_reorient
}

set {
    reference rhf
    basis 6-31g
    num_roots 6
    diag_method rsp
    print 2
    dipmom true
    opdm true
    tdm true
}

thisenergy, ciwfn = prop('detci', properties=['DIPOLE', 'TRANSITION_DIPOLE'], return_wfn=True)

for i in range(3):
    for j in range(i+1):
        ciop_dm = ciwfn.get_opdm(i,j,'SUM',True)
        ciop_dm.print_out()

mints = MintsHelper(ciwfn.basisset())

AOdip = mints.ao_dipole()
AOdip[0].print_out()
AOdip[1].print_out()
AOdip[2].print_out()

ciwfn.Ca().print_out()               # Print orbital information





--------------------------------------------------------------------------
   => Libint2 <=

    Primary   basis highest AM E, G, H:  6, 6, 3
    Auxiliary basis highest AM E, G, H:  7, 7, 4
    Onebody   basis highest AM E, G, H:  -, -, -
    Solid Harmonics ordering:            Gaussian

*** tstart() called on gnode010.cluster
*** at Sun Aug 17 18:21:45 2025

   => Loading Basis Set <=

    Name: 6-31G
    Role: ORBITAL
    Keyword: BASIS
    atoms 1-2 entry H          line    26 file /home/hbhat/psi4conda/share/psi4/basis/6-31g.gbs 


         ---------------------------------------------------------
                                   SCF
               by Justin Turney, Rob Parrish, Andy Simmonett
                          and Daniel G. A. Smith
                              RHF Reference
                        1 Threads,    500 MiB Core
         ---------------------------------------------------------

  ==> Geometry <==

    Molecular point group: c1
    Full point group: D_inf_h

    Geometry (in Angstrom), charge = 0, multiplicity = 1:

       Center              X                  Y                   Z               Mass       
    ------------   -----------------  -----------------  -----------------  -----------------
         H            0.000000000000     0.000000000000    -0.370000000000     1.007825032230
         H            0.000000000000     0.000000000000     0.370000000000     1.007825032230

  Running in c1 symmetry.

  Rotational constants: A = ************  B =     61.09110  C =     61.09110 [cm^-1]
  Rotational constants: A = ************  B = 1831464.96157  C = 1831464.96157 [MHz]
  Nuclear repulsion =    0.715104338743243

  Charge       = 0
  Multiplicity = 1
  Electrons    = 2
  Nalpha       = 1
  Nbeta        = 1

  ==> Algorithm <==

  SCF Algorithm Type is PK.
  DIIS enabled.
  MOM disabled.
  Fractional occupation disabled.
  Guess Type is SAD.
  Energy threshold   = 1.00e-10
  Density threshold  = 1.00e-10
  Integral threshold = 1.00e-12

  ==> Primary Basis <==

  -AO BASIS SET INFORMATION:
    Name                   = 6-31G
    Blend                  = 6-31G
    Total number of shells = 4
    Number of primitives   = 8
    Number of AO           = 4
    Number of SO           = 4
    Maximum AM             = 0
    Spherical Harmonics    = FALSE

  -Contraction Scheme:
    Atom   Type   All Primitives // Shells:
   ------ ------ --------------------------
       1     H     4s // 2s 
       2     H     4s // 2s 

  ==> Integral Setup <==

  Using in-core PK algorithm.
   Calculation information:
      Number of atoms:                   2
      Number of AO shells:               4
      Number of primitives:              8
      Number of atomic orbitals:         4
      Number of basis functions:         4

      Integral cutoff                 1.00e-12
      Number of threads:                 1

  Performing in-core PK
  Using 110 doubles for integral storage.
  We computed 55 shell quartets total.
  Whereas there are 55 unique shell quartets.

  ==> DiskJK: Disk-Based J/K Matrices <==

    J tasked:                  Yes
    K tasked:                  Yes
    wK tasked:                  No
    Memory [MiB]:              375
    Schwarz Cutoff:          1E-12

    OpenMP threads:              1

  Minimum eigenvalue in the overlap matrix is 9.6229014725E-02.
  Reciprocal condition number of the overlap matrix is 3.3895758091E-02.
    Using symmetric orthogonalization.

  ==> Pre-Iterations <==

  SCF Guess: Superposition of Atomic Densities via on-the-fly atomic UHF (no occupation information).

   -------------------------
    Irrep   Nso     Nmo    
   -------------------------
     A          4       4 
   -------------------------
    Total       4       4
   -------------------------

  ==> Iterations <==

                        Total Energy        Delta E     RMS |[F,P]|

   @RHF iter SAD:    -0.85203687478047   -8.52037e-01   0.00000e+00 
   @RHF iter   1:    -1.12494911460567   -2.72912e-01   1.14955e-02 ADIIS/DIIS
   @RHF iter   2:    -1.12671609052843   -1.76698e-03   1.69179e-03 ADIIS/DIIS
   @RHF iter   3:    -1.12675531283107   -3.92223e-05   1.78323e-05 DIIS
   @RHF iter   4:    -1.12675531719201   -4.36094e-09   1.47995e-08 DIIS
   @RHF iter   5:    -1.12675531719201   -3.33067e-15   8.10337e-12 DIIS
  Energy and wave function converged.


  ==> Post-Iterations <==

    Orbital Energies [Eh]
    ---------------------

    Doubly Occupied:                                                      

       1A     -0.595817  

    Virtual:                                                              

       2A      0.238473     3A      0.774723     4A      1.404412  

    Final Occupation by Irrep:
              A 
    DOCC [     1 ]
    NA   [     1 ]
    NB   [     1 ]

  @RHF Final Energy:    -1.12675531719201

   => Energetics <=

    Nuclear Repulsion Energy =              0.7151043387432432
    One-Electron Energy =                  -2.4920847077833304
    Two-Electron Energy =                   0.6502250518480732
    Total Energy =                         -1.1267553171920139

Computation Completed


Properties will be evaluated at   0.000000,   0.000000,   0.000000 [a0]

Properties computed using the SCF density matrix


 Multipole Moments:

 ------------------------------------------------------------------------------------
     Multipole            Electronic (a.u.)      Nuclear  (a.u.)        Total (a.u.)
 ------------------------------------------------------------------------------------

 L = 1.  Multiply by 2.5417464519 to convert [e a0] to [Debye]
 Dipole X            :          0.0000000            0.0000000            0.0000000
 Dipole Y            :          0.0000000            0.0000000            0.0000000
 Dipole Z            :         -0.0000000            0.0000000           -0.0000000
 Magnitude           :                                                    0.0000000

 ------------------------------------------------------------------------------------

*** tstop() called on gnode010.cluster at Sun Aug 17 18:21:45 2025
Module time:
	user time   =       0.12 seconds =       0.00 minutes
	system time =       0.02 seconds =       0.00 minutes
	total time  =          0 seconds =       0.00 minutes
Total time:
	user time   =       0.12 seconds =       0.00 minutes
	system time =       0.02 seconds =       0.00 minutes
	total time  =          0 seconds =       0.00 minutes
 MINTS: Wrapper to libmints.
   by Justin Turney

   Calculation information:
      Number of threads:                 1
      Number of atoms:                   2
      Number of AO shells:               4
      Number of SO shells:               4
      Number of primitives:              8
      Number of atomic orbitals:         4
      Number of basis functions:         4

      Number of irreps:                  1
      Integral cutoff                 1.00e-12
      Number of functions per irrep: [   4 ]

 OEINTS: Overlap, kinetic, potential, dipole, and quadrupole integrals
         stored in file 35.

      Computing two-electron integrals...done
      Computed 55 non-zero two-electron integrals.
        Stored in file 33.


         ---------------------------------------------------------
                          Configuration Interaction
                            (a 'D E T C I' module)

                 C. David Sherrill, Daniel G. A. Smith, and
                              Matt L. Leininger
         ---------------------------------------------------------

DAVIDSON update not available for OLSEN or MITRUSH iterators

   ==> Parameters <==

    EX LEVEL       =        2      H0 BLOCKSIZE  =     1000
    VAL EX LEVEL   =        0      H0 GUESS SIZE =     1000
    H0COUPLINGSIZE =        0      H0 COUPLING   =       NO
    MAXITER        =       24      NUM PRINT     =       20
    NUM ROOTS      =        6      ICORE         =        1
    PRINT LVL      =        2      FCI           =       NO
    R CONV         = 1.00e-04      MIXED         =      YES
    E CONV         = 1.00e-08      MIXED4        =      YES
    R4S            =       NO      REPL OTF      =       NO
    DIAG METHOD    =      RSP      FOLLOW ROOT   =        0
    PRECONDITIONER = DAVIDSON      UPDATE        = OLSEN
    S              =   0.0000      Ms0           =      YES
    GUESS VECTOR   =  H0BLOCK      OPENTYPE      =     NONE
    COLLAPSE SIZE  =        1      HD AVG        = EVANGELISTI
    MAX NUM VECS   =        0      REF SYM       =     AUTO
    IOPEN        =       NO

    EX ALLOW       =  1  1 
    STATE AVERAGE  =  0(1.00) 

   ==> CI Orbital and Space information <==

    RAS1 LVL      =        0      A RAS3 MAX    =        1
    RAS1 MIN      =        0      B RAS3 MAX    =        1
    A RAS1 LVL    =        0      RAS4 LVL      =        4
    A RAS1 MIN    =        0      A RAS4 MAX    =        0
    A RAS1 MAX    =        1      B RAS4 MAX    =        0
    B RAS1 LVL    =        0      RAS4 MAX      =        0
    B RAS1 MIN    =        0      A RAS34 MAX   =        1
    B RAS1 MAX    =        1      B RAS34 MAX   =        1
    RAS3 LVL      =        1      RAS34 MAX     =        2
    RAS3 MAX      =        2
   ------------------------------------
               Space    Total     A
   ------------------------------------
                 Nso        4     4
                 Nmo        4     4
               Ndocc        1     1
               Nsocc        0     0
   ------------------------------------
              CI Spaces
   ------------------------------------
        Dropped DOCC        0     0
                RAS1        1     1
                RAS2        0     0
                RAS3        3     3
                RAS4        0     0
      Active (total)        4     4
        Dropped UOCC        0     0
   ------------------------------------

   ==> Setting up CI strings <==

    There are 4 alpha and 4 beta strings
    The CI space requires 16 (1.60E+01) determinants and 4 blocks
    Total H0block size (including coupling): 16

   ==> Transforming CI integrals <==

	Presorting SO-basis two-electron integrals.
	Sorting File: SO Ints (nn|nn) nbuckets = 1
	Constructing frozen core operators
	Starting first half-transformation.
	h = 0; memfree         = 65535968
	h = 0; rows_per_bucket = 10
	h = 0; rows_left       = 0
	h = 0; nbuckets        = 1
	Sorting half-transformed integrals.
	First half integral transformation complete.
	Starting second half-transformation.
	h = 0; memfree         = 65535968
	h = 0; rows_per_bucket = 10
	h = 0; rows_left       = 0
	h = 0; nbuckets        = 1
	Two-electron integral transformation complete.

   ==> Starting CI iterations <==

    Exact Diagonalization Algorithm

   ==> Energetics <==

    SCF energy =           -1.126755317192014
    Total CI energy =      -1.151672544964151

   ==> DETCI root 0 information <==

    DETCI Root 0 energy =    -1.151672544964151

   The 16 most important determinants:

    *   1    0.992767  (    0,    0)  1AX 
    *   2   -0.076496  (    1,    1)  2AX 
    *   3   -0.050545  (    2,    2)  3AX 
    *   4   -0.045329  (    1,    3)  2AA 4AB 
    *   5   -0.045329  (    3,    1)  2AB 4AA 
    *   6   -0.042819  (    3,    3)  4AX 
    *   7    0.005675  (    0,    2)  1AA 3AB 
    *   8    0.005675  (    2,    0)  1AB 3AA 


   ==> DETCI root 1 information <==

    DETCI Root 1 energy =    -0.756915148198448

   The 16 most important determinants:

    *   1    0.696692  (    1,    0)  1AB 2AA 
    *   2   -0.696692  (    0,    1)  1AA 2AB 
    *   3   -0.102978  (    0,    3)  1AA 4AB 
    *   4    0.102978  (    3,    0)  1AB 4AA 
    *   5    0.062538  (    1,    2)  2AA 3AB 
    *   6   -0.062538  (    2,    1)  2AB 3AA 
    *   7    0.010254  (    2,    3)  3AA 4AB 
    *   8   -0.010254  (    3,    2)  3AB 4AA 


   ==> DETCI root 2 information <==

    DETCI Root 2 energy =    -0.589077481025596

   The 16 most important determinants:

    *   1   -0.699681  (    0,    1)  1AA 2AB 
    *   2   -0.699681  (    1,    0)  1AB 2AA 
    *   3   -0.096696  (    1,    2)  2AA 3AB 
    *   4   -0.096696  (    2,    1)  2AB 3AA 
    *   5    0.026216  (    2,    3)  3AA 4AB 
    *   6    0.026216  (    3,    2)  3AB 4AA 
    *   7    0.020219  (    3,    0)  1AB 4AA 
    *   8    0.020219  (    0,    3)  1AA 4AB 


   ==> DETCI root 3 information <==

    DETCI Root 3 energy =    -0.291792296718486

   The 16 most important determinants:

    *   1   -0.705895  (    0,    2)  1AA 3AB 
    *   2    0.705895  (    2,    0)  1AB 3AA 
    *   3   -0.041376  (    3,    1)  2AB 4AA 
    *   4    0.041376  (    1,    3)  2AA 4AB 


   ==> DETCI root 4 information <==

    DETCI Root 4 energy =    -0.104366475403230

   The 16 most important determinants:

    *   1    0.693663  (    0,    2)  1AA 3AB 
    *   2    0.693663  (    2,    0)  1AB 3AA 
    *   3    0.122432  (    1,    1)  2AX 
    *   4   -0.097100  (    3,    3)  4AX 
    *   5    0.080638  (    2,    2)  3AX 
    *   6   -0.058003  (    3,    1)  2AB 4AA 
    *   7   -0.058003  (    1,    3)  2AA 4AB 
    *   8   -0.003875  (    0,    0)  1AX 


   ==> DETCI root 5 information <==

    DETCI Root 5 energy =    -0.040623689383683

   The 16 most important determinants:

    *   1    0.964110  (    1,    1)  2AX 
    *   2    0.157710  (    1,    3)  2AA 4AB 
    *   3    0.157710  (    3,    1)  2AB 4AA 
    *   4    0.085702  (    0,    0)  1AX 
    *   5   -0.069806  (    0,    2)  1AA 3AB 
    *   6   -0.069806  (    2,    0)  1AB 3AA 
    *   7   -0.056800  (    2,    2)  3AX 
    *   8   -0.020729  (    3,    3)  4AX 

		 "A good bug is a dead bug" 

			 - Starship Troopers

		 "I didn't write FORTRAN.  That's the problem."

			 - Edward Valeev


Properties will be evaluated at   0.000000,   0.000000,   0.000000 [a0]

Properties computed using the DETCI density matrix


 Multipole Moments:

 ------------------------------------------------------------------------------------
     Multipole            Electronic (a.u.)      Nuclear  (a.u.)        Total (a.u.)
 ------------------------------------------------------------------------------------

 L = 1.  Multiply by 2.5417464519 to convert [e a0] to [Debye]
 Dipole X            :          0.0000000            0.0000000            0.0000000
 Dipole Y            :          0.0000000            0.0000000            0.0000000
 Dipole Z            :         -0.0000000            0.0000000           -0.0000000
 Magnitude           :                                                    0.0000000

 ------------------------------------------------------------------------------------


Properties will be evaluated at   0.000000,   0.000000,   0.000000 [a0]

Properties computed using the CI density matrix


 Multipole Moments:

 ------------------------------------------------------------------------------------
     Multipole            Electronic (a.u.)      Nuclear  (a.u.)        Total (a.u.)
 ------------------------------------------------------------------------------------

 L = 1.  Multiply by 2.5417464519 to convert [e a0] to [Debye]
 Dipole X            :          0.0000000            0.0000000            0.0000000
 Dipole Y            :          0.0000000            0.0000000            0.0000000
 Dipole Z            :         -0.0000000            0.0000000           -0.0000000
 Magnitude           :                                                    0.0000000

 ------------------------------------------------------------------------------------

   ===> CI properties for all CI roots <=== 


Properties computed using the CI ROOT 0 density matrix


 Multipole Moments:

 ------------------------------------------------------------------------------------
     Multipole            Electronic (a.u.)      Nuclear  (a.u.)        Total (a.u.)
 ------------------------------------------------------------------------------------

 L = 1.  Multiply by 2.5417464519 to convert [e a0] to [Debye]
 Dipole X            :          0.0000000            0.0000000            0.0000000
 Dipole Y            :          0.0000000            0.0000000            0.0000000
 Dipole Z            :         -0.0000000            0.0000000           -0.0000000
 Magnitude           :                                                    0.0000000

 ------------------------------------------------------------------------------------

Properties computed using the CI ROOT 1 density matrix


 Multipole Moments:

 ------------------------------------------------------------------------------------
     Multipole            Electronic (a.u.)      Nuclear  (a.u.)        Total (a.u.)
 ------------------------------------------------------------------------------------

 L = 1.  Multiply by 2.5417464519 to convert [e a0] to [Debye]
 Dipole X            :          0.0000000            0.0000000            0.0000000
 Dipole Y            :          0.0000000            0.0000000            0.0000000
 Dipole Z            :          0.0000000            0.0000000            0.0000000
 Magnitude           :                                                    0.0000000

 ------------------------------------------------------------------------------------

Properties computed using the CI ROOT 2 density matrix


 Multipole Moments:

 ------------------------------------------------------------------------------------
     Multipole            Electronic (a.u.)      Nuclear  (a.u.)        Total (a.u.)
 ------------------------------------------------------------------------------------

 L = 1.  Multiply by 2.5417464519 to convert [e a0] to [Debye]
 Dipole X            :          0.0000000            0.0000000            0.0000000
 Dipole Y            :          0.0000000            0.0000000            0.0000000
 Dipole Z            :         -0.0000000            0.0000000           -0.0000000
 Magnitude           :                                                    0.0000000

 ------------------------------------------------------------------------------------

Properties computed using the CI ROOT 3 density matrix


 Multipole Moments:

 ------------------------------------------------------------------------------------
     Multipole            Electronic (a.u.)      Nuclear  (a.u.)        Total (a.u.)
 ------------------------------------------------------------------------------------

 L = 1.  Multiply by 2.5417464519 to convert [e a0] to [Debye]
 Dipole X            :          0.0000000            0.0000000            0.0000000
 Dipole Y            :          0.0000000            0.0000000            0.0000000
 Dipole Z            :         -0.0000000            0.0000000           -0.0000000
 Magnitude           :                                                    0.0000000

 ------------------------------------------------------------------------------------

Properties computed using the CI ROOT 4 density matrix


 Multipole Moments:

 ------------------------------------------------------------------------------------
     Multipole            Electronic (a.u.)      Nuclear  (a.u.)        Total (a.u.)
 ------------------------------------------------------------------------------------

 L = 1.  Multiply by 2.5417464519 to convert [e a0] to [Debye]
 Dipole X            :          0.0000000            0.0000000            0.0000000
 Dipole Y            :          0.0000000            0.0000000            0.0000000
 Dipole Z            :         -0.0000000            0.0000000           -0.0000000
 Magnitude           :                                                    0.0000000

 ------------------------------------------------------------------------------------

Properties computed using the CI ROOT 5 density matrix


 Multipole Moments:

 ------------------------------------------------------------------------------------
     Multipole            Electronic (a.u.)      Nuclear  (a.u.)        Total (a.u.)
 ------------------------------------------------------------------------------------

 L = 1.  Multiply by 2.5417464519 to convert [e a0] to [Debye]
 Dipole X            :          0.0000000            0.0000000            0.0000000
 Dipole Y            :          0.0000000            0.0000000            0.0000000
 Dipole Z            :          0.0000000            0.0000000            0.0000000
 Magnitude           :                                                    0.0000000

 ------------------------------------------------------------------------------------

   ===> CI properties for all CI transition density matrices <=== 


Properties computed using the CI ROOT 0 -> ROOT 1 density matrix


Transition Multipole Moments:

 ------------------------------------------------------------------------------------
     Multipole            Electronic (a.u.)      Nuclear  (a.u.)        Total (a.u.)
 ------------------------------------------------------------------------------------

 L = 1.  Multiply by 2.5417464519 to convert [e a0] to [Debye]
 Dipole X            :          0.0000000            0.0000000            0.0000000
 Dipole Y            :          0.0000000            0.0000000            0.0000000
 Dipole Z            :          1.5817620            0.0000000            1.5817620
 Magnitude           :                                                    1.5817620

 ------------------------------------------------------------------------------------

Properties computed using the CI ROOT 0 -> ROOT 2 density matrix


Transition Multipole Moments:

 ------------------------------------------------------------------------------------
     Multipole            Electronic (a.u.)      Nuclear  (a.u.)        Total (a.u.)
 ------------------------------------------------------------------------------------

 L = 1.  Multiply by 2.5417464519 to convert [e a0] to [Debye]
 Dipole X            :          0.0000000            0.0000000            0.0000000
 Dipole Y            :          0.0000000            0.0000000            0.0000000
 Dipole Z            :         -1.2977657            0.0000000           -1.2977657
 Magnitude           :                                                    1.2977657

 ------------------------------------------------------------------------------------

Properties computed using the CI ROOT 0 -> ROOT 3 density matrix


Transition Multipole Moments:

 ------------------------------------------------------------------------------------
     Multipole            Electronic (a.u.)      Nuclear  (a.u.)        Total (a.u.)
 ------------------------------------------------------------------------------------

 L = 1.  Multiply by 2.5417464519 to convert [e a0] to [Debye]
 Dipole X            :          0.0000000            0.0000000            0.0000000
 Dipole Y            :          0.0000000            0.0000000            0.0000000
 Dipole Z            :          0.0000000            0.0000000            0.0000000
 Magnitude           :                                                    0.0000000

 ------------------------------------------------------------------------------------

Properties computed using the CI ROOT 0 -> ROOT 4 density matrix


Transition Multipole Moments:

 ------------------------------------------------------------------------------------
     Multipole            Electronic (a.u.)      Nuclear  (a.u.)        Total (a.u.)
 ------------------------------------------------------------------------------------

 L = 1.  Multiply by 2.5417464519 to convert [e a0] to [Debye]
 Dipole X            :          0.0000000            0.0000000            0.0000000
 Dipole Y            :          0.0000000            0.0000000            0.0000000
 Dipole Z            :          0.0000000            0.0000000            0.0000000
 Magnitude           :                                                    0.0000000

 ------------------------------------------------------------------------------------

Properties computed using the CI ROOT 0 -> ROOT 5 density matrix


Transition Multipole Moments:

 ------------------------------------------------------------------------------------
     Multipole            Electronic (a.u.)      Nuclear  (a.u.)        Total (a.u.)
 ------------------------------------------------------------------------------------

 L = 1.  Multiply by 2.5417464519 to convert [e a0] to [Debye]
 Dipole X            :          0.0000000            0.0000000            0.0000000
 Dipole Y            :          0.0000000            0.0000000            0.0000000
 Dipole Z            :          0.0000000            0.0000000            0.0000000
 Magnitude           :                                                    0.0000000

 ------------------------------------------------------------------------------------
  ## MO-basis OPDM <0| Etu |0> (Symmetry 0) ##
  Irrep: 1 Size: 4 x 4

                 1                   2                   3                   4

    1     1.97123706292544    -0.00000000000000     0.01069339939963    -0.00000000000000
    2    -0.00000000000000     0.01581266379279    -0.00000000000000     0.01081678614683
    3     0.01069339939963    -0.00000000000000     0.00517394830487    -0.00000000000000
    4    -0.00000000000000     0.01081678614683    -0.00000000000000     0.00777632497690



  ## MO-basis OPDM <1| Etu |0> (Symmetry 0) ##
  Irrep: 1 Size: 4 x 4

                 1                   2                   3                   4

    1     0.00000000000000    -0.00000000000000    -0.00000000000000    -0.00000000000000
    2     0.00000000000000    -0.00000000000000    -0.00000000000000    -0.00000000000000
    3     0.00000000000000    -0.00000000000000    -0.00000000000000    -0.00000000000000
    4    -0.00000000000000     0.00000000000000    -0.00000000000000    -0.00000000000000



  ## MO-basis OPDM <1| Etu |1> (Symmetry 0) ##
  Irrep: 1 Size: 4 x 4

                 1                   2                   3                   4

    1     0.99196769687507     0.00000000000000     0.08502751280476    -0.00000000000000
    2     0.00000000000000     0.97858084646779     0.00000000000000     0.14220501431556
    3     0.08502751280476     0.00000000000000     0.00803230312494    -0.00000000000000
    4    -0.00000000000000     0.14220501431556    -0.00000000000000     0.02141915353221



  ## MO-basis OPDM <2| Etu |0> (Symmetry 0) ##
  Irrep: 1 Size: 4 x 4

                 1                   2                   3                   4

    1     0.00000000000000     0.10521275428625    -0.00000000000000     0.06169965081546
    2    -1.39033827619762    -0.00000000000000     0.00183419003322    -0.00000000000000
    3    -0.00000000000000     0.01241709690955    -0.00000000000000     0.00652112845907
    4     0.04044257121563    -0.00000000000000    -0.00242066758057    -0.00000000000000



  ## MO-basis OPDM <2| Etu |1> (Symmetry 0) ##
  Irrep: 1 Size: 4 x 4

                 1                   2                   3                   4

    1     0.00000000000000    -0.00000000000000    -0.00000000000000     0.00000000000000
    2    -0.00000000000000    -0.00000000000000    -0.00000000000000     0.00000000000000
    3    -0.00000000000000     0.00000000000000    -0.00000000000000     0.00000000000000
    4    -0.00000000000000     0.00000000000000    -0.00000000000000     0.00000000000000



  ## MO-basis OPDM <2| Etu |2> (Symmetry 0) ##
  Irrep: 1 Size: 4 x 4

                 1                   2                   3                   4

    1     0.97992521415241    -0.00000000000000     0.13637294679229    -0.00000000000000
    2    -0.00000000000000     0.99780787721882     0.00000000000000    -0.03336329082912
    3     0.13637294679229     0.00000000000000     0.02007478584759    -0.00000000000000
    4    -0.00000000000000    -0.03336329082912    -0.00000000000000     0.00219212278118



  ## AO Mux (Symmetry 0) ##
  Irrep: 1 Size: 4 x 4

                 1                   2                   3                   4

    1     0.00000000000000     0.00000000000000     0.00000000000000     0.00000000000000
    2     0.00000000000000     0.00000000000000     0.00000000000000     0.00000000000000
    3     0.00000000000000     0.00000000000000     0.00000000000000     0.00000000000000
    4     0.00000000000000     0.00000000000000     0.00000000000000     0.00000000000000



  ## AO Muy (Symmetry 0) ##
  Irrep: 1 Size: 4 x 4

                 1                   2                   3                   4

    1     0.00000000000000     0.00000000000000     0.00000000000000     0.00000000000000
    2     0.00000000000000     0.00000000000000     0.00000000000000     0.00000000000000
    3     0.00000000000000     0.00000000000000     0.00000000000000     0.00000000000000
    4     0.00000000000000     0.00000000000000     0.00000000000000     0.00000000000000



  ## AO Muz (Symmetry 0) ##
  Irrep: 1 Size: 4 x 4

                 1                   2                   3                   4

    1     0.69919866641940     0.46027692301255     0.00000000000000     0.22409559585490
    2     0.46027692301255     0.69919866641940    -0.22409559585490     0.00000000000000
    3     0.00000000000000    -0.22409559585490    -0.69919866641940    -0.46027692301255
    4     0.22409559585490     0.00000000000000    -0.46027692301255    -0.69919866641940



  ## Alpha MO coefficients (Symmetry 0) ##
  Irrep: 1 Size: 4 x 4

                 1                   2                   3                   4

    1     0.32693513071575     0.12264887071698     0.76631477698051     1.12263455683473
    2     0.27180596137293     1.71489493351151    -0.68625226070897    -1.34943203301861
    3     0.32693513071575    -0.12264887071698     0.76631477698051    -1.12263455683473
    4     0.27180596137293    -1.71489493351151    -0.68625226070897     1.34943203301862




    Psi4 stopped on: Sunday, 17 August 2025 06:21PM
    Psi4 wall time for execution: 0:00:00.34

*** Psi4 exiting successfully. Buy a developer a beer!
