
    -----------------------------------------------------------------------
          Psi4: An Open-Source Ab Initio Electronic Structure Package
                               Psi4 1.9.1 release

                         Git: Rev {} zzzzzzz 


    D. G. A. Smith, L. A. Burns, A. C. Simmonett, R. M. Parrish,
    M. C. Schieber, R. Galvelis, P. Kraus, H. Kruse, R. Di Remigio,
    A. Alenaizan, A. M. James, S. Lehtola, J. P. Misiewicz, M. Scheurer,
    R. A. Shaw, J. B. Schriber, Y. Xie, Z. L. Glick, D. A. Sirianni,
    J. S. O'Brien, J. M. Waldrop, A. Kumar, E. G. Hohenstein,
    B. P. Pritchard, B. R. Brooks, H. F. Schaefer III, A. Yu. Sokolov,
    K. Patkowski, A. E. DePrince III, U. Bozkaya, R. A. King,
    F. A. Evangelista, J. M. Turney, T. D. Crawford, C. D. Sherrill,
    J. Chem. Phys. 152(18) 184108 (2020). https://doi.org/10.1063/5.0006002

                            Additional Code Authors
    E. T. Seidl, C. L. Janssen, E. F. Valeev, M. L. Leininger,
    J. F. Gonthier, R. M. Richard, H. R. McAlexander, M. Saitow, X. Wang,
    P. Verma, M. H. Lechner, A. Jiang, S. Behnle, A. G. Heide,
    M. F. Herbst, and D. L. Poole

             Previous Authors, Complete List of Code Contributors,
                       and Citations for Specific Modules
    https://github.com/psi4/psi4/blob/master/codemeta.json
    https://github.com/psi4/psi4/graphs/contributors
    http://psicode.org/psi4manual/master/introduction.html#citing-psifour

    -----------------------------------------------------------------------


    Psi4 started on: Sunday, 17 August 2025 05:45PM

    Process ID: 1441756
    Host:       gnode010.cluster
    PSIDATADIR: /home/hbhat/psi4conda/share/psi4
    Memory:     500.0 MiB
    Threads:    1
    
  ==> Input File <==

--------------------------------------------------------------------------
memory 1 gb

molecule h2 {
H  0.       0.      -0.37
H  0.       0.       0.37
symmetry c1
no_com
no_reorient
}

set {
    reference rhf
    basis 6-31g
    ms0 false
    fci true
    diag_method rsp
    num_roots 16
    print 2
    dipmom true
    opdm true
    tdm true
}

thisenergy, ciwfn = prop('detci', properties=['DIPOLE', 'TRANSITION_DIPOLE'], return_wfn=True)

for i in range(16):
    for j in range(i+1):
        ciop_dm = ciwfn.get_opdm(i,j,'SUM',True)
        ciop_dm.print_out()

mints = MintsHelper(ciwfn.basisset())

AOdip = mints.ao_dipole()
AOdip[0].print_out()
AOdip[1].print_out()
AOdip[2].print_out()

ciwfn.Ca().print_out()               # Print orbital information




--------------------------------------------------------------------------

  Memory set to 953.674 MiB by Python driver.
   => Libint2 <=

    Primary   basis highest AM E, G, H:  6, 6, 3
    Auxiliary basis highest AM E, G, H:  7, 7, 4
    Onebody   basis highest AM E, G, H:  -, -, -
    Solid Harmonics ordering:            Gaussian

*** tstart() called on gnode010.cluster
*** at Sun Aug 17 17:45:55 2025

   => Loading Basis Set <=

    Name: 6-31G
    Role: ORBITAL
    Keyword: BASIS
    atoms 1-2 entry H          line    26 file /home/hbhat/psi4conda/share/psi4/basis/6-31g.gbs 


         ---------------------------------------------------------
                                   SCF
               by Justin Turney, Rob Parrish, Andy Simmonett
                          and Daniel G. A. Smith
                              RHF Reference
                        1 Threads,    953 MiB Core
         ---------------------------------------------------------

  ==> Geometry <==

    Molecular point group: c1
    Full point group: D_inf_h

    Geometry (in Angstrom), charge = 0, multiplicity = 1:

       Center              X                  Y                   Z               Mass       
    ------------   -----------------  -----------------  -----------------  -----------------
         H            0.000000000000     0.000000000000    -0.370000000000     1.007825032230
         H            0.000000000000     0.000000000000     0.370000000000     1.007825032230

  Running in c1 symmetry.

  Rotational constants: A = ************  B =     61.09110  C =     61.09110 [cm^-1]
  Rotational constants: A = ************  B = 1831464.96157  C = 1831464.96157 [MHz]
  Nuclear repulsion =    0.715104338743243

  Charge       = 0
  Multiplicity = 1
  Electrons    = 2
  Nalpha       = 1
  Nbeta        = 1

  ==> Algorithm <==

  SCF Algorithm Type is PK.
  DIIS enabled.
  MOM disabled.
  Fractional occupation disabled.
  Guess Type is SAD.
  Energy threshold   = 1.00e-10
  Density threshold  = 1.00e-10
  Integral threshold = 1.00e-12

  ==> Primary Basis <==

  -AO BASIS SET INFORMATION:
    Name                   = 6-31G
    Blend                  = 6-31G
    Total number of shells = 4
    Number of primitives   = 8
    Number of AO           = 4
    Number of SO           = 4
    Maximum AM             = 0
    Spherical Harmonics    = FALSE

  -Contraction Scheme:
    Atom   Type   All Primitives // Shells:
   ------ ------ --------------------------
       1     H     4s // 2s 
       2     H     4s // 2s 

  ==> Integral Setup <==

  Using in-core PK algorithm.
   Calculation information:
      Number of atoms:                   2
      Number of AO shells:               4
      Number of primitives:              8
      Number of atomic orbitals:         4
      Number of basis functions:         4

      Integral cutoff                 1.00e-12
      Number of threads:                 1

  Performing in-core PK
  Using 110 doubles for integral storage.
  We computed 55 shell quartets total.
  Whereas there are 55 unique shell quartets.

  ==> DiskJK: Disk-Based J/K Matrices <==

    J tasked:                  Yes
    K tasked:                  Yes
    wK tasked:                  No
    Memory [MiB]:              715
    Schwarz Cutoff:          1E-12

    OpenMP threads:              1

  Minimum eigenvalue in the overlap matrix is 9.6229014725E-02.
  Reciprocal condition number of the overlap matrix is 3.3895758091E-02.
    Using symmetric orthogonalization.

  ==> Pre-Iterations <==

  SCF Guess: Superposition of Atomic Densities via on-the-fly atomic UHF (no occupation information).

   -------------------------
    Irrep   Nso     Nmo    
   -------------------------
     A          4       4 
   -------------------------
    Total       4       4
   -------------------------

  ==> Iterations <==

                        Total Energy        Delta E     RMS |[F,P]|

   @RHF iter SAD:    -0.85203687478047   -8.52037e-01   0.00000e+00 
   @RHF iter   1:    -1.12494911460567   -2.72912e-01   1.14955e-02 ADIIS/DIIS
   @RHF iter   2:    -1.12671609052843   -1.76698e-03   1.69179e-03 ADIIS/DIIS
   @RHF iter   3:    -1.12675531283107   -3.92223e-05   1.78323e-05 DIIS
   @RHF iter   4:    -1.12675531719201   -4.36094e-09   1.47995e-08 DIIS
   @RHF iter   5:    -1.12675531719201   -3.33067e-15   8.10337e-12 DIIS
  Energy and wave function converged.


  ==> Post-Iterations <==

    Orbital Energies [Eh]
    ---------------------

    Doubly Occupied:                                                      

       1A     -0.595817  

    Virtual:                                                              

       2A      0.238473     3A      0.774723     4A      1.404412  

    Final Occupation by Irrep:
              A 
    DOCC [     1 ]
    NA   [     1 ]
    NB   [     1 ]

  @RHF Final Energy:    -1.12675531719201

   => Energetics <=

    Nuclear Repulsion Energy =              0.7151043387432432
    One-Electron Energy =                  -2.4920847077833304
    Two-Electron Energy =                   0.6502250518480732
    Total Energy =                         -1.1267553171920139

Computation Completed


Properties will be evaluated at   0.000000,   0.000000,   0.000000 [a0]

Properties computed using the SCF density matrix


 Multipole Moments:

 ------------------------------------------------------------------------------------
     Multipole            Electronic (a.u.)      Nuclear  (a.u.)        Total (a.u.)
 ------------------------------------------------------------------------------------

 L = 1.  Multiply by 2.5417464519 to convert [e a0] to [Debye]
 Dipole X            :          0.0000000            0.0000000            0.0000000
 Dipole Y            :          0.0000000            0.0000000            0.0000000
 Dipole Z            :         -0.0000000            0.0000000           -0.0000000
 Magnitude           :                                                    0.0000000

 ------------------------------------------------------------------------------------

*** tstop() called on gnode010.cluster at Sun Aug 17 17:45:55 2025
Module time:
	user time   =       0.12 seconds =       0.00 minutes
	system time =       0.02 seconds =       0.00 minutes
	total time  =          0 seconds =       0.00 minutes
Total time:
	user time   =       0.12 seconds =       0.00 minutes
	system time =       0.02 seconds =       0.00 minutes
	total time  =          0 seconds =       0.00 minutes
 MINTS: Wrapper to libmints.
   by Justin Turney

   Calculation information:
      Number of threads:                 1
      Number of atoms:                   2
      Number of AO shells:               4
      Number of SO shells:               4
      Number of primitives:              8
      Number of atomic orbitals:         4
      Number of basis functions:         4

      Number of irreps:                  1
      Integral cutoff                 1.00e-12
      Number of functions per irrep: [   4 ]

 OEINTS: Overlap, kinetic, potential, dipole, and quadrupole integrals
         stored in file 35.

      Computing two-electron integrals...done
      Computed 55 non-zero two-electron integrals.
        Stored in file 33.


         ---------------------------------------------------------
                          Configuration Interaction
                            (a 'D E T C I' module)

                 C. David Sherrill, Daniel G. A. Smith, and
                              Matt L. Leininger
         ---------------------------------------------------------

DAVIDSON update not available for OLSEN or MITRUSH iterators

   ==> Parameters <==

    EX LEVEL       =        2      H0 BLOCKSIZE  =     1000
    VAL EX LEVEL   =        0      H0 GUESS SIZE =     1000
    H0COUPLINGSIZE =        0      H0 COUPLING   =       NO
    MAXITER        =       24      NUM PRINT     =       20
    NUM ROOTS      =       16      ICORE         =        1
    PRINT LVL      =        2      FCI           =      YES
    R CONV         = 1.00e-04      MIXED         =      YES
    E CONV         = 1.00e-08      MIXED4        =      YES
    R4S            =       NO      REPL OTF      =       NO
    DIAG METHOD    =      RSP      FOLLOW ROOT   =        0
    PRECONDITIONER = DAVIDSON      UPDATE        = OLSEN
    S              =   0.0000      Ms0           =       NO
    GUESS VECTOR   =  H0BLOCK      OPENTYPE      =     NONE
    COLLAPSE SIZE  =        1      HD AVG        = EVANGELISTI
    MAX NUM VECS   =        0      REF SYM       =     AUTO
    IOPEN        =       NO

    EX ALLOW       =  1  1 
    STATE AVERAGE  =  0(1.00) 

   ==> CI Orbital and Space information <==

   ------------------------------------
               Space    Total     A
   ------------------------------------
                 Nso        4     4
                 Nmo        4     4
               Ndocc        1     1
               Nsocc        0     0
   ------------------------------------
              CI Spaces
   ------------------------------------
        Dropped DOCC        0     0
              Active        4     4
        Dropped UOCC        0     0
   ------------------------------------

   ==> Setting up CI strings <==

    There are 4 alpha and 4 beta strings
    The CI space requires 16 (1.60E+01) determinants and 1 blocks
    Total H0block size (including coupling): 16

   ==> Transforming CI integrals <==

	Presorting SO-basis two-electron integrals.
	Sorting File: SO Ints (nn|nn) nbuckets = 1
	Constructing frozen core operators
	Starting first half-transformation.
	h = 0; memfree         = 124999968
	h = 0; rows_per_bucket = 10
	h = 0; rows_left       = 0
	h = 0; nbuckets        = 1
	Sorting half-transformed integrals.
	First half integral transformation complete.
	Starting second half-transformation.
	h = 0; memfree         = 124999968
	h = 0; rows_per_bucket = 10
	h = 0; rows_left       = 0
	h = 0; nbuckets        = 1
	Two-electron integral transformation complete.

   ==> Starting CI iterations <==

    Exact Diagonalization Algorithm

   ==> Energetics <==

    SCF energy =           -1.126755317192014
    Total CI energy =      -1.151672544964151

   ==> DETCI root 0 information <==

    DETCI Root 0 energy =    -1.151672544964151

   The 16 most important determinants:

    *   1    0.992767  (    0,    0)  1AX 
    *   2   -0.076496  (    1,    1)  2AX 
    *   3   -0.050545  (    2,    2)  3AX 
    *   4   -0.045329  (    1,    3)  2AA 4AB 
    *   5   -0.045329  (    3,    1)  2AB 4AA 
    *   6   -0.042819  (    3,    3)  4AX 
    *   7    0.005675  (    0,    2)  1AA 3AB 
    *   8    0.005675  (    2,    0)  1AB 3AA 


   ==> DETCI root 1 information <==

    DETCI Root 1 energy =    -0.756915148198448

   The 16 most important determinants:

    *   1   -0.696692  (    1,    0)  1AB 2AA 
    *   2    0.696692  (    0,    1)  1AA 2AB 
    *   3    0.102978  (    0,    3)  1AA 4AB 
    *   4   -0.102978  (    3,    0)  1AB 4AA 
    *   5   -0.062538  (    1,    2)  2AA 3AB 
    *   6    0.062538  (    2,    1)  2AB 3AA 
    *   7   -0.010254  (    2,    3)  3AA 4AB 
    *   8    0.010254  (    3,    2)  3AB 4AA 


   ==> DETCI root 2 information <==

    DETCI Root 2 energy =    -0.589077481025596

   The 16 most important determinants:

    *   1    0.699681  (    0,    1)  1AA 2AB 
    *   2    0.699681  (    1,    0)  1AB 2AA 
    *   3    0.096696  (    1,    2)  2AA 3AB 
    *   4    0.096696  (    2,    1)  2AB 3AA 
    *   5   -0.026216  (    2,    3)  3AA 4AB 
    *   6   -0.026216  (    3,    2)  3AB 4AA 
    *   7   -0.020219  (    0,    3)  1AA 4AB 
    *   8   -0.020219  (    3,    0)  1AB 4AA 


   ==> DETCI root 3 information <==

    DETCI Root 3 energy =    -0.291792296718487

   The 16 most important determinants:

    *   1   -0.705895  (    2,    0)  1AB 3AA 
    *   2    0.705895  (    0,    2)  1AA 3AB 
    *   3    0.041376  (    3,    1)  2AB 4AA 
    *   4   -0.041376  (    1,    3)  2AA 4AB 


   ==> DETCI root 4 information <==

    DETCI Root 4 energy =    -0.104366475403229

   The 16 most important determinants:

    *   1    0.693663  (    0,    2)  1AA 3AB 
    *   2    0.693663  (    2,    0)  1AB 3AA 
    *   3    0.122432  (    1,    1)  2AX 
    *   4   -0.097100  (    3,    3)  4AX 
    *   5    0.080638  (    2,    2)  3AX 
    *   6   -0.058003  (    1,    3)  2AA 4AB 
    *   7   -0.058003  (    3,    1)  2AB 4AA 
    *   8   -0.003875  (    0,    0)  1AX 


   ==> DETCI root 5 information <==

    DETCI Root 5 energy =    -0.040623689383682

   The 16 most important determinants:

    *   1    0.964110  (    1,    1)  2AX 
    *   2    0.157710  (    1,    3)  2AA 4AB 
    *   3    0.157710  (    3,    1)  2AB 4AA 
    *   4    0.085702  (    0,    0)  1AX 
    *   5   -0.069806  (    0,    2)  1AA 3AB 
    *   6   -0.069806  (    2,    0)  1AB 3AA 
    *   7   -0.056800  (    2,    2)  3AX 
    *   8   -0.020729  (    3,    3)  4AX 


   ==> DETCI root 6 information <==

    DETCI Root 6 energy =     0.221595886818016

   The 16 most important determinants:

    *   1    0.693664  (    0,    3)  1AA 4AB 
    *   2   -0.693664  (    3,    0)  1AB 4AA 
    *   3    0.105454  (    1,    0)  1AB 2AA 
    *   4   -0.105454  (    0,    1)  1AA 2AB 
    *   5   -0.075433  (    3,    2)  3AB 4AA 
    *   6    0.075433  (    2,    3)  3AA 4AB 
    *   7   -0.044944  (    1,    2)  2AA 3AB 
    *   8    0.044944  (    2,    1)  2AB 3AA 


   ==> DETCI root 7 information <==

    DETCI Root 7 energy =     0.266440839580531

   The 16 most important determinants:

    *   1    0.524838  (    2,    1)  2AB 3AA 
    *   2    0.524838  (    1,    2)  2AA 3AB 
    *   3   -0.452241  (    3,    0)  1AB 4AA 
    *   4   -0.452241  (    0,    3)  1AA 4AB 
    *   5    0.115841  (    2,    3)  3AA 4AB 
    *   6    0.115841  (    3,    2)  3AB 4AA 
    *   7   -0.081261  (    0,    1)  1AA 2AB 
    *   8   -0.081261  (    1,    0)  1AB 2AA 


   ==> DETCI root 8 information <==

    DETCI Root 8 energy =     0.325689170257706

   The 16 most important determinants:

    *   1    0.696852  (    1,    2)  2AA 3AB 
    *   2   -0.696852  (    2,    1)  2AB 3AA 
    *   3    0.088148  (    3,    2)  3AB 4AA 
    *   4   -0.088148  (    2,    3)  3AA 4AB 
    *   5   -0.062641  (    3,    0)  1AB 4AA 
    *   6    0.062641  (    0,    3)  1AA 4AB 
    *   7   -0.051996  (    1,    0)  1AB 2AA 
    *   8    0.051996  (    0,    1)  1AA 2AB 


   ==> DETCI root 9 information <==

    DETCI Root 9 energy =     0.608061358100531

   The 16 most important determinants:

    *   1   -0.533400  (    3,    0)  1AB 4AA 
    *   2   -0.533400  (    0,    3)  1AA 4AB 
    *   3   -0.460078  (    1,    2)  2AA 3AB 
    *   4   -0.460078  (    2,    1)  2AB 3AA 
    *   5    0.049550  (    0,    1)  1AA 2AB 
    *   6    0.049550  (    1,    0)  1AB 2AA 
    *   7    0.036841  (    3,    2)  3AB 4AA 
    *   8    0.036841  (    2,    3)  3AA 4AB 


   ==> DETCI root 10 information <==

    DETCI Root 10 energy =     0.760020600361778

   The 16 most important determinants:

    *   1   -0.705895  (    1,    3)  2AA 4AB 
    *   2    0.705895  (    3,    1)  2AB 4AA 
    *   3   -0.041376  (    0,    2)  1AA 3AB 
    *   4    0.041376  (    2,    0)  1AB 3AA 


   ==> DETCI root 11 information <==

    DETCI Root 11 energy =     0.818261239194040

   The 16 most important determinants:

    *   1    0.987199  (    2,    2)  3AX 
    *   2   -0.109696  (    3,    3)  4AX 
    *   3   -0.066393  (    0,    2)  1AA 3AB 
    *   4   -0.066393  (    2,    0)  1AB 3AA 
    *   5    0.050794  (    0,    0)  1AX 
    *   6    0.035270  (    1,    1)  2AX 
    *   7    0.019568  (    1,    3)  2AA 4AB 
    *   8    0.019568  (    3,    1)  2AB 4AA 


   ==> DETCI root 12 information <==

    DETCI Root 12 energy =     0.954450940205998

   The 16 most important determinants:

    *   1   -0.684206  (    3,    1)  2AB 4AA 
    *   2   -0.684206  (    1,    3)  2AA 4AB 
    *   3    0.215756  (    1,    1)  2AX 
    *   4   -0.079985  (    0,    2)  1AA 3AB 
    *   5   -0.079985  (    2,    0)  1AB 3AA 
    *   6   -0.046650  (    0,    0)  1AX 
    *   7   -0.046575  (    3,    3)  4AX 
    *   8    0.005882  (    2,    2)  3AX 


   ==> DETCI root 13 information <==

    DETCI Root 13 energy =     1.200718078747306

   The 16 most important determinants:

    *   1   -0.697449  (    2,    3)  3AA 4AB 
    *   2    0.697449  (    3,    2)  3AB 4AA 
    *   3    0.092014  (    2,    1)  2AB 3AA 
    *   4   -0.092014  (    1,    2)  2AA 3AB 
    *   5    0.065592  (    0,    3)  1AA 4AB 
    *   6   -0.065592  (    3,    0)  1AB 4AA 
    *   7    0.028220  (    1,    0)  1AB 2AA 
    *   8   -0.028220  (    0,    1)  1AA 2AB 


   ==> DETCI root 14 information <==

    DETCI Root 14 energy =     1.467640694726344

   The 16 most important determinants:

    *   1    0.696086  (    2,    3)  3AA 4AB 
    *   2    0.696086  (    3,    2)  3AB 4AA 
    *   3    0.102730  (    3,    0)  1AB 4AA 
    *   4    0.102730  (    0,    3)  1AA 4AB 
    *   5   -0.059350  (    1,    2)  2AA 3AB 
    *   6   -0.059350  (    2,    1)  2AB 3AA 
    *   7    0.037252  (    0,    1)  1AA 2AB 
    *   8    0.037252  (    1,    0)  1AB 2AA 


   ==> DETCI root 15 information <==

    DETCI Root 15 energy =     1.927698294992993

   The 16 most important determinants:

    *   1   -0.986968  (    3,    3)  4AX 
    *   2   -0.114547  (    2,    2)  3AX 
    *   3   -0.055870  (    2,    0)  1AB 3AA 
    *   4   -0.055870  (    0,    2)  1AA 3AB 
    *   5   -0.047933  (    0,    0)  1AX 
    *   6   -0.043077  (    1,    1)  2AX 
    *   7    0.034473  (    1,    3)  2AA 4AB 
    *   8    0.034473  (    3,    1)  2AB 4AA 

		 "A good bug is a dead bug" 

			 - Starship Troopers

		 "I didn't write FORTRAN.  That's the problem."

			 - Edward Valeev


Properties will be evaluated at   0.000000,   0.000000,   0.000000 [a0]

Properties computed using the DETCI density matrix


 Multipole Moments:

 ------------------------------------------------------------------------------------
     Multipole            Electronic (a.u.)      Nuclear  (a.u.)        Total (a.u.)
 ------------------------------------------------------------------------------------

 L = 1.  Multiply by 2.5417464519 to convert [e a0] to [Debye]
 Dipole X            :          0.0000000            0.0000000            0.0000000
 Dipole Y            :          0.0000000            0.0000000            0.0000000
 Dipole Z            :         -0.0000000            0.0000000           -0.0000000
 Magnitude           :                                                    0.0000000

 ------------------------------------------------------------------------------------


Properties will be evaluated at   0.000000,   0.000000,   0.000000 [a0]

Properties computed using the CI density matrix


 Multipole Moments:

 ------------------------------------------------------------------------------------
     Multipole            Electronic (a.u.)      Nuclear  (a.u.)        Total (a.u.)
 ------------------------------------------------------------------------------------

 L = 1.  Multiply by 2.5417464519 to convert [e a0] to [Debye]
 Dipole X            :          0.0000000            0.0000000            0.0000000
 Dipole Y            :          0.0000000            0.0000000            0.0000000
 Dipole Z            :         -0.0000000            0.0000000           -0.0000000
 Magnitude           :                                                    0.0000000

 ------------------------------------------------------------------------------------

   ===> CI properties for all CI roots <=== 


Properties computed using the CI ROOT 0 density matrix


 Multipole Moments:

 ------------------------------------------------------------------------------------
     Multipole            Electronic (a.u.)      Nuclear  (a.u.)        Total (a.u.)
 ------------------------------------------------------------------------------------

 L = 1.  Multiply by 2.5417464519 to convert [e a0] to [Debye]
 Dipole X            :          0.0000000            0.0000000            0.0000000
 Dipole Y            :          0.0000000            0.0000000            0.0000000
 Dipole Z            :         -0.0000000            0.0000000           -0.0000000
 Magnitude           :                                                    0.0000000

 ------------------------------------------------------------------------------------

Properties computed using the CI ROOT 1 density matrix


 Multipole Moments:

 ------------------------------------------------------------------------------------
     Multipole            Electronic (a.u.)      Nuclear  (a.u.)        Total (a.u.)
 ------------------------------------------------------------------------------------

 L = 1.  Multiply by 2.5417464519 to convert [e a0] to [Debye]
 Dipole X            :          0.0000000            0.0000000            0.0000000
 Dipole Y            :          0.0000000            0.0000000            0.0000000
 Dipole Z            :          0.0000000            0.0000000            0.0000000
 Magnitude           :                                                    0.0000000

 ------------------------------------------------------------------------------------

Properties computed using the CI ROOT 2 density matrix


 Multipole Moments:

 ------------------------------------------------------------------------------------
     Multipole            Electronic (a.u.)      Nuclear  (a.u.)        Total (a.u.)
 ------------------------------------------------------------------------------------

 L = 1.  Multiply by 2.5417464519 to convert [e a0] to [Debye]
 Dipole X            :          0.0000000            0.0000000            0.0000000
 Dipole Y            :          0.0000000            0.0000000            0.0000000
 Dipole Z            :          0.0000000            0.0000000            0.0000000
 Magnitude           :                                                    0.0000000

 ------------------------------------------------------------------------------------

Properties computed using the CI ROOT 3 density matrix


 Multipole Moments:

 ------------------------------------------------------------------------------------
     Multipole            Electronic (a.u.)      Nuclear  (a.u.)        Total (a.u.)
 ------------------------------------------------------------------------------------

 L = 1.  Multiply by 2.5417464519 to convert [e a0] to [Debye]
 Dipole X            :          0.0000000            0.0000000            0.0000000
 Dipole Y            :          0.0000000            0.0000000            0.0000000
 Dipole Z            :         -0.0000000            0.0000000           -0.0000000
 Magnitude           :                                                    0.0000000

 ------------------------------------------------------------------------------------

Properties computed using the CI ROOT 4 density matrix


 Multipole Moments:

 ------------------------------------------------------------------------------------
     Multipole            Electronic (a.u.)      Nuclear  (a.u.)        Total (a.u.)
 ------------------------------------------------------------------------------------

 L = 1.  Multiply by 2.5417464519 to convert [e a0] to [Debye]
 Dipole X            :          0.0000000            0.0000000            0.0000000
 Dipole Y            :          0.0000000            0.0000000            0.0000000
 Dipole Z            :         -0.0000000            0.0000000           -0.0000000
 Magnitude           :                                                    0.0000000

 ------------------------------------------------------------------------------------

Properties computed using the CI ROOT 5 density matrix


 Multipole Moments:

 ------------------------------------------------------------------------------------
     Multipole            Electronic (a.u.)      Nuclear  (a.u.)        Total (a.u.)
 ------------------------------------------------------------------------------------

 L = 1.  Multiply by 2.5417464519 to convert [e a0] to [Debye]
 Dipole X            :          0.0000000            0.0000000            0.0000000
 Dipole Y            :          0.0000000            0.0000000            0.0000000
 Dipole Z            :          0.0000000            0.0000000            0.0000000
 Magnitude           :                                                    0.0000000

 ------------------------------------------------------------------------------------

Properties computed using the CI ROOT 6 density matrix


 Multipole Moments:

 ------------------------------------------------------------------------------------
     Multipole            Electronic (a.u.)      Nuclear  (a.u.)        Total (a.u.)
 ------------------------------------------------------------------------------------

 L = 1.  Multiply by 2.5417464519 to convert [e a0] to [Debye]
 Dipole X            :          0.0000000            0.0000000            0.0000000
 Dipole Y            :          0.0000000            0.0000000            0.0000000
 Dipole Z            :         -0.0000000            0.0000000           -0.0000000
 Magnitude           :                                                    0.0000000

 ------------------------------------------------------------------------------------

Properties computed using the CI ROOT 7 density matrix


 Multipole Moments:

 ------------------------------------------------------------------------------------
     Multipole            Electronic (a.u.)      Nuclear  (a.u.)        Total (a.u.)
 ------------------------------------------------------------------------------------

 L = 1.  Multiply by 2.5417464519 to convert [e a0] to [Debye]
 Dipole X            :          0.0000000            0.0000000            0.0000000
 Dipole Y            :          0.0000000            0.0000000            0.0000000
 Dipole Z            :          0.0000000            0.0000000            0.0000000
 Magnitude           :                                                    0.0000000

 ------------------------------------------------------------------------------------

Properties computed using the CI ROOT 8 density matrix


 Multipole Moments:

 ------------------------------------------------------------------------------------
     Multipole            Electronic (a.u.)      Nuclear  (a.u.)        Total (a.u.)
 ------------------------------------------------------------------------------------

 L = 1.  Multiply by 2.5417464519 to convert [e a0] to [Debye]
 Dipole X            :          0.0000000            0.0000000            0.0000000
 Dipole Y            :          0.0000000            0.0000000            0.0000000
 Dipole Z            :          0.0000000            0.0000000            0.0000000
 Magnitude           :                                                    0.0000000

 ------------------------------------------------------------------------------------

Properties computed using the CI ROOT 9 density matrix


 Multipole Moments:

 ------------------------------------------------------------------------------------
     Multipole            Electronic (a.u.)      Nuclear  (a.u.)        Total (a.u.)
 ------------------------------------------------------------------------------------

 L = 1.  Multiply by 2.5417464519 to convert [e a0] to [Debye]
 Dipole X            :          0.0000000            0.0000000            0.0000000
 Dipole Y            :          0.0000000            0.0000000            0.0000000
 Dipole Z            :          0.0000000            0.0000000            0.0000000
 Magnitude           :                                                    0.0000000

 ------------------------------------------------------------------------------------

Properties computed using the CI ROOT 10 density matrix


 Multipole Moments:

 ------------------------------------------------------------------------------------
     Multipole            Electronic (a.u.)      Nuclear  (a.u.)        Total (a.u.)
 ------------------------------------------------------------------------------------

 L = 1.  Multiply by 2.5417464519 to convert [e a0] to [Debye]
 Dipole X            :          0.0000000            0.0000000            0.0000000
 Dipole Y            :          0.0000000            0.0000000            0.0000000
 Dipole Z            :         -0.0000000            0.0000000           -0.0000000
 Magnitude           :                                                    0.0000000

 ------------------------------------------------------------------------------------

Properties computed using the CI ROOT 11 density matrix


 Multipole Moments:

 ------------------------------------------------------------------------------------
     Multipole            Electronic (a.u.)      Nuclear  (a.u.)        Total (a.u.)
 ------------------------------------------------------------------------------------

 L = 1.  Multiply by 2.5417464519 to convert [e a0] to [Debye]
 Dipole X            :          0.0000000            0.0000000            0.0000000
 Dipole Y            :          0.0000000            0.0000000            0.0000000
 Dipole Z            :         -0.0000000            0.0000000           -0.0000000
 Magnitude           :                                                    0.0000000

 ------------------------------------------------------------------------------------

Properties computed using the CI ROOT 12 density matrix


 Multipole Moments:

 ------------------------------------------------------------------------------------
     Multipole            Electronic (a.u.)      Nuclear  (a.u.)        Total (a.u.)
 ------------------------------------------------------------------------------------

 L = 1.  Multiply by 2.5417464519 to convert [e a0] to [Debye]
 Dipole X            :          0.0000000            0.0000000            0.0000000
 Dipole Y            :          0.0000000            0.0000000            0.0000000
 Dipole Z            :         -0.0000000            0.0000000           -0.0000000
 Magnitude           :                                                    0.0000000

 ------------------------------------------------------------------------------------

Properties computed using the CI ROOT 13 density matrix


 Multipole Moments:

 ------------------------------------------------------------------------------------
     Multipole            Electronic (a.u.)      Nuclear  (a.u.)        Total (a.u.)
 ------------------------------------------------------------------------------------

 L = 1.  Multiply by 2.5417464519 to convert [e a0] to [Debye]
 Dipole X            :          0.0000000            0.0000000            0.0000000
 Dipole Y            :          0.0000000            0.0000000            0.0000000
 Dipole Z            :         -0.0000000            0.0000000           -0.0000000
 Magnitude           :                                                    0.0000000

 ------------------------------------------------------------------------------------

Properties computed using the CI ROOT 14 density matrix


 Multipole Moments:

 ------------------------------------------------------------------------------------
     Multipole            Electronic (a.u.)      Nuclear  (a.u.)        Total (a.u.)
 ------------------------------------------------------------------------------------

 L = 1.  Multiply by 2.5417464519 to convert [e a0] to [Debye]
 Dipole X            :          0.0000000            0.0000000            0.0000000
 Dipole Y            :          0.0000000            0.0000000            0.0000000
 Dipole Z            :          0.0000000            0.0000000            0.0000000
 Magnitude           :                                                    0.0000000

 ------------------------------------------------------------------------------------

Properties computed using the CI ROOT 15 density matrix


 Multipole Moments:

 ------------------------------------------------------------------------------------
     Multipole            Electronic (a.u.)      Nuclear  (a.u.)        Total (a.u.)
 ------------------------------------------------------------------------------------

 L = 1.  Multiply by 2.5417464519 to convert [e a0] to [Debye]
 Dipole X            :          0.0000000            0.0000000            0.0000000
 Dipole Y            :          0.0000000            0.0000000            0.0000000
 Dipole Z            :         -0.0000000            0.0000000           -0.0000000
 Magnitude           :                                                    0.0000000

 ------------------------------------------------------------------------------------

   ===> CI properties for all CI transition density matrices <=== 


Properties computed using the CI ROOT 0 -> ROOT 1 density matrix


Transition Multipole Moments:

 ------------------------------------------------------------------------------------
     Multipole            Electronic (a.u.)      Nuclear  (a.u.)        Total (a.u.)
 ------------------------------------------------------------------------------------

 L = 1.  Multiply by 2.5417464519 to convert [e a0] to [Debye]
 Dipole X            :          0.0000000            0.0000000            0.0000000
 Dipole Y            :          0.0000000            0.0000000            0.0000000
 Dipole Z            :         -1.5817620            0.0000000           -1.5817620
 Magnitude           :                                                    1.5817620

 ------------------------------------------------------------------------------------

Properties computed using the CI ROOT 0 -> ROOT 2 density matrix


Transition Multipole Moments:

 ------------------------------------------------------------------------------------
     Multipole            Electronic (a.u.)      Nuclear  (a.u.)        Total (a.u.)
 ------------------------------------------------------------------------------------

 L = 1.  Multiply by 2.5417464519 to convert [e a0] to [Debye]
 Dipole X            :          0.0000000            0.0000000            0.0000000
 Dipole Y            :          0.0000000            0.0000000            0.0000000
 Dipole Z            :          1.2977657            0.0000000            1.2977657
 Magnitude           :                                                    1.2977657

 ------------------------------------------------------------------------------------

Properties computed using the CI ROOT 0 -> ROOT 3 density matrix


Transition Multipole Moments:

 ------------------------------------------------------------------------------------
     Multipole            Electronic (a.u.)      Nuclear  (a.u.)        Total (a.u.)
 ------------------------------------------------------------------------------------

 L = 1.  Multiply by 2.5417464519 to convert [e a0] to [Debye]
 Dipole X            :          0.0000000            0.0000000            0.0000000
 Dipole Y            :          0.0000000            0.0000000            0.0000000
 Dipole Z            :         -0.0000000            0.0000000           -0.0000000
 Magnitude           :                                                    0.0000000

 ------------------------------------------------------------------------------------

Properties computed using the CI ROOT 0 -> ROOT 4 density matrix


Transition Multipole Moments:

 ------------------------------------------------------------------------------------
     Multipole            Electronic (a.u.)      Nuclear  (a.u.)        Total (a.u.)
 ------------------------------------------------------------------------------------

 L = 1.  Multiply by 2.5417464519 to convert [e a0] to [Debye]
 Dipole X            :          0.0000000            0.0000000            0.0000000
 Dipole Y            :          0.0000000            0.0000000            0.0000000
 Dipole Z            :          0.0000000            0.0000000            0.0000000
 Magnitude           :                                                    0.0000000

 ------------------------------------------------------------------------------------

Properties computed using the CI ROOT 0 -> ROOT 5 density matrix


Transition Multipole Moments:

 ------------------------------------------------------------------------------------
     Multipole            Electronic (a.u.)      Nuclear  (a.u.)        Total (a.u.)
 ------------------------------------------------------------------------------------

 L = 1.  Multiply by 2.5417464519 to convert [e a0] to [Debye]
 Dipole X            :          0.0000000            0.0000000            0.0000000
 Dipole Y            :          0.0000000            0.0000000            0.0000000
 Dipole Z            :         -0.0000000            0.0000000           -0.0000000
 Magnitude           :                                                    0.0000000

 ------------------------------------------------------------------------------------

Properties computed using the CI ROOT 0 -> ROOT 6 density matrix


Transition Multipole Moments:

 ------------------------------------------------------------------------------------
     Multipole            Electronic (a.u.)      Nuclear  (a.u.)        Total (a.u.)
 ------------------------------------------------------------------------------------

 L = 1.  Multiply by 2.5417464519 to convert [e a0] to [Debye]
 Dipole X            :          0.0000000            0.0000000            0.0000000
 Dipole Y            :          0.0000000            0.0000000            0.0000000
 Dipole Z            :         -0.1364694            0.0000000           -0.1364694
 Magnitude           :                                                    0.1364694

 ------------------------------------------------------------------------------------

Properties computed using the CI ROOT 0 -> ROOT 7 density matrix


Transition Multipole Moments:

 ------------------------------------------------------------------------------------
     Multipole            Electronic (a.u.)      Nuclear  (a.u.)        Total (a.u.)
 ------------------------------------------------------------------------------------

 L = 1.  Multiply by 2.5417464519 to convert [e a0] to [Debye]
 Dipole X            :          0.0000000            0.0000000            0.0000000
 Dipole Y            :          0.0000000            0.0000000            0.0000000
 Dipole Z            :         -0.2070686            0.0000000           -0.2070686
 Magnitude           :                                                    0.2070686

 ------------------------------------------------------------------------------------

Properties computed using the CI ROOT 0 -> ROOT 8 density matrix


Transition Multipole Moments:

 ------------------------------------------------------------------------------------
     Multipole            Electronic (a.u.)      Nuclear  (a.u.)        Total (a.u.)
 ------------------------------------------------------------------------------------

 L = 1.  Multiply by 2.5417464519 to convert [e a0] to [Debye]
 Dipole X            :          0.0000000            0.0000000            0.0000000
 Dipole Y            :          0.0000000            0.0000000            0.0000000
 Dipole Z            :         -0.1245318            0.0000000           -0.1245318
 Magnitude           :                                                    0.1245318

 ------------------------------------------------------------------------------------

Properties computed using the CI ROOT 0 -> ROOT 9 density matrix


Transition Multipole Moments:

 ------------------------------------------------------------------------------------
     Multipole            Electronic (a.u.)      Nuclear  (a.u.)        Total (a.u.)
 ------------------------------------------------------------------------------------

 L = 1.  Multiply by 2.5417464519 to convert [e a0] to [Debye]
 Dipole X            :          0.0000000            0.0000000            0.0000000
 Dipole Y            :          0.0000000            0.0000000            0.0000000
 Dipole Z            :         -0.1645047            0.0000000           -0.1645047
 Magnitude           :                                                    0.1645047

 ------------------------------------------------------------------------------------

Properties computed using the CI ROOT 0 -> ROOT 10 density matrix


Transition Multipole Moments:

 ------------------------------------------------------------------------------------
     Multipole            Electronic (a.u.)      Nuclear  (a.u.)        Total (a.u.)
 ------------------------------------------------------------------------------------

 L = 1.  Multiply by 2.5417464519 to convert [e a0] to [Debye]
 Dipole X            :          0.0000000            0.0000000            0.0000000
 Dipole Y            :          0.0000000            0.0000000            0.0000000
 Dipole Z            :         -0.0000000            0.0000000           -0.0000000
 Magnitude           :                                                    0.0000000

 ------------------------------------------------------------------------------------

Properties computed using the CI ROOT 0 -> ROOT 11 density matrix


Transition Multipole Moments:

 ------------------------------------------------------------------------------------
     Multipole            Electronic (a.u.)      Nuclear  (a.u.)        Total (a.u.)
 ------------------------------------------------------------------------------------

 L = 1.  Multiply by 2.5417464519 to convert [e a0] to [Debye]
 Dipole X            :          0.0000000            0.0000000            0.0000000
 Dipole Y            :          0.0000000            0.0000000            0.0000000
 Dipole Z            :         -0.0000000            0.0000000           -0.0000000
 Magnitude           :                                                    0.0000000

 ------------------------------------------------------------------------------------

Properties computed using the CI ROOT 0 -> ROOT 12 density matrix


Transition Multipole Moments:

 ------------------------------------------------------------------------------------
     Multipole            Electronic (a.u.)      Nuclear  (a.u.)        Total (a.u.)
 ------------------------------------------------------------------------------------

 L = 1.  Multiply by 2.5417464519 to convert [e a0] to [Debye]
 Dipole X            :          0.0000000            0.0000000            0.0000000
 Dipole Y            :          0.0000000            0.0000000            0.0000000
 Dipole Z            :         -0.0000000            0.0000000           -0.0000000
 Magnitude           :                                                    0.0000000

 ------------------------------------------------------------------------------------

Properties computed using the CI ROOT 0 -> ROOT 13 density matrix


Transition Multipole Moments:

 ------------------------------------------------------------------------------------
     Multipole            Electronic (a.u.)      Nuclear  (a.u.)        Total (a.u.)
 ------------------------------------------------------------------------------------

 L = 1.  Multiply by 2.5417464519 to convert [e a0] to [Debye]
 Dipole X            :          0.0000000            0.0000000            0.0000000
 Dipole Y            :          0.0000000            0.0000000            0.0000000
 Dipole Z            :         -0.0501975            0.0000000           -0.0501975
 Magnitude           :                                                    0.0501975

 ------------------------------------------------------------------------------------

Properties computed using the CI ROOT 0 -> ROOT 14 density matrix


Transition Multipole Moments:

 ------------------------------------------------------------------------------------
     Multipole            Electronic (a.u.)      Nuclear  (a.u.)        Total (a.u.)
 ------------------------------------------------------------------------------------

 L = 1.  Multiply by 2.5417464519 to convert [e a0] to [Debye]
 Dipole X            :          0.0000000            0.0000000            0.0000000
 Dipole Y            :          0.0000000            0.0000000            0.0000000
 Dipole Z            :          0.0313395            0.0000000            0.0313395
 Magnitude           :                                                    0.0313395

 ------------------------------------------------------------------------------------

Properties computed using the CI ROOT 0 -> ROOT 15 density matrix


Transition Multipole Moments:

 ------------------------------------------------------------------------------------
     Multipole            Electronic (a.u.)      Nuclear  (a.u.)        Total (a.u.)
 ------------------------------------------------------------------------------------

 L = 1.  Multiply by 2.5417464519 to convert [e a0] to [Debye]
 Dipole X            :          0.0000000            0.0000000            0.0000000
 Dipole Y            :          0.0000000            0.0000000            0.0000000
 Dipole Z            :          0.0000000            0.0000000            0.0000000
 Magnitude           :                                                    0.0000000

 ------------------------------------------------------------------------------------
  ## MO-basis OPDM <0| Etu |0> (Symmetry 0) ##
  Irrep: 1 Size: 4 x 4

                 1                   2                   3                   4

    1     1.97123706292543    -0.00000000000000     0.01069339939963    -0.00000000000000
    2    -0.00000000000000     0.01581266379279    -0.00000000000000     0.01081678614683
    3     0.01069339939963    -0.00000000000000     0.00517394830487    -0.00000000000000
    4    -0.00000000000000     0.01081678614683    -0.00000000000000     0.00777632497690



  ## MO-basis OPDM <1| Etu |0> (Symmetry 0) ##
  Irrep: 1 Size: 4 x 4

                 1                   2                   3                   4

    1     0.00000000000000     0.00000000000000    -0.00000000000000     0.00000000000000
    2    -0.00000000000000    -0.00000000000000     0.00000000000000    -0.00000000000000
    3     0.00000000000000     0.00000000000000     0.00000000000000     0.00000000000000
    4     0.00000000000000    -0.00000000000000     0.00000000000000    -0.00000000000000



  ## MO-basis OPDM <1| Etu |1> (Symmetry 0) ##
  Irrep: 1 Size: 4 x 4

                 1                   2                   3                   4

    1     0.99196769687506     0.00000000000000     0.08502751280476    -0.00000000000000
    2     0.00000000000000     0.97858084646779    -0.00000000000000     0.14220501431556
    3     0.08502751280476    -0.00000000000000     0.00803230312494    -0.00000000000000
    4    -0.00000000000000     0.14220501431556    -0.00000000000000     0.02141915353221



  ## MO-basis OPDM <2| Etu |0> (Symmetry 0) ##
  Irrep: 1 Size: 4 x 4

                 1                   2                   3                   4

    1    -0.00000000000000    -0.10521275428625     0.00000000000000    -0.06169965081546
    2     1.39033827619762     0.00000000000000    -0.00183419003322     0.00000000000000
    3     0.00000000000000    -0.01241709690955     0.00000000000000    -0.00652112845907
    4    -0.04044257121563     0.00000000000000     0.00242066758057     0.00000000000000



  ## MO-basis OPDM <2| Etu |1> (Symmetry 0) ##
  Irrep: 1 Size: 4 x 4

                 1                   2                   3                   4

    1     0.00000000000000    -0.00000000000000     0.00000000000000     0.00000000000000
    2     0.00000000000000     0.00000000000000     0.00000000000000     0.00000000000000
    3    -0.00000000000000     0.00000000000000    -0.00000000000000     0.00000000000000
    4     0.00000000000000    -0.00000000000000     0.00000000000000    -0.00000000000000



  ## MO-basis OPDM <2| Etu |2> (Symmetry 0) ##
  Irrep: 1 Size: 4 x 4

                 1                   2                   3                   4

    1     0.97992521415242    -0.00000000000000     0.13637294679229    -0.00000000000000
    2    -0.00000000000000     0.99780787721882     0.00000000000000    -0.03336329082912
    3     0.13637294679229     0.00000000000000     0.02007478584759    -0.00000000000000
    4    -0.00000000000000    -0.03336329082912    -0.00000000000000     0.00219212278118



  ## MO-basis OPDM <3| Etu |0> (Symmetry 0) ##
  Irrep: 1 Size: 4 x 4

                 1                   2                   3                   4

    1    -0.00000000000000     0.00000000000000     0.00000000000000     0.00000000000000
    2    -0.00000000000000    -0.00000000000000    -0.00000000000000    -0.00000000000000
    3    -0.00000000000000     0.00000000000000     0.00000000000000    -0.00000000000000
    4     0.00000000000000    -0.00000000000000     0.00000000000000    -0.00000000000000



  ## MO-basis OPDM <3| Etu |1> (Symmetry 0) ##
  Irrep: 1 Size: 4 x 4

                 1                   2                   3                   4

    1    -0.00000000000000    -0.08829055495887     0.00000000000000     0.01447682511198
    2    -0.00852167886449     0.00000000000000     0.00084856412537     0.00000000000000
    3     0.00000000000000     0.98358272076010    -0.00000000000000     0.14538306639750
    4     0.05765304234307    -0.00000000000000     0.00517518150340    -0.00000000000000



  ## MO-basis OPDM <3| Etu |2> (Symmetry 0) ##
  Irrep: 1 Size: 4 x 4

                 1                   2                   3                   4

    1     0.00000000000000    -0.00000000000000    -0.00000000000000     0.00000000000000
    2     0.00000000000000    -0.00000000000000     0.00000000000000     0.00000000000000
    3    -0.00000000000000     0.00000000000000     0.00000000000000    -0.00000000000000
    4     0.00000000000000     0.00000000000000    -0.00000000000000     0.00000000000000



  ## MO-basis OPDM <3| Etu |3> (Symmetry 0) ##
  Irrep: 1 Size: 4 x 4

                 1                   2                   3                   4

    1     0.99657600513325    -0.00000000000000     0.00000000000000    -0.00000000000000
    2    -0.00000000000000     0.00342399486675     0.00000000000000    -0.00000000000000
    3     0.00000000000000     0.00000000000000     0.99657600513325    -0.00000000000000
    4    -0.00000000000000    -0.00000000000000    -0.00000000000000     0.00342399486675



  ## MO-basis OPDM <4| Etu |0> (Symmetry 0) ##
  Irrep: 1 Size: 4 x 4

                 1                   2                   3                   4

    1     0.00017819011451     0.00000000000000    -0.07016601236527     0.00000000000000
    2    -0.00000000000000    -0.01347282293493     0.00000000000000    -0.00613212085855
    3     1.37820592872923    -0.00000000000000    -0.00027922231921     0.00000000000000
    4     0.00000000000000     0.01767678879997    -0.00000000000000     0.01357385513963



  ## MO-basis OPDM <4| Etu |1> (Symmetry 0) ##
  Irrep: 1 Size: 4 x 4

                 1                   2                   3                   4

    1     0.00000000000000    -0.00000000000000    -0.00000000000000    -0.00000000000000
    2    -0.00000000000000    -0.00000000000000     0.00000000000000    -0.00000000000000
    3     0.00000000000000    -0.00000000000000     0.00000000000000     0.00000000000000
    4     0.00000000000000     0.00000000000000     0.00000000000000     0.00000000000000



  ## MO-basis OPDM <4| Etu |2> (Symmetry 0) ##
  Irrep: 1 Size: 4 x 4

                 1                   2                   3                   4

    1     0.00000000000000     0.12872613912417    -0.00000000000000    -0.03621300087635
    2     0.17367273740642    -0.00000000000000     0.02671862160511    -0.00000000000000
    3    -0.00000000000000     0.98628024685873     0.00000000000000    -0.03227798227302
    4    -0.07724036817732     0.00000000000000    -0.00612617981038     0.00000000000000



  ## MO-basis OPDM <4| Etu |3> (Symmetry 0) ##
  Irrep: 1 Size: 4 x 4

                 1                   2                   3                   4

    1     0.00000000000000    -0.00000000000000    -0.00000000000000    -0.00000000000000
    2    -0.00000000000000     0.00000000000000    -0.00000000000000     0.00000000000000
    3    -0.00000000000000    -0.00000000000000     0.00000000000000     0.00000000000000
    4     0.00000000000000    -0.00000000000000     0.00000000000000    -0.00000000000000



  ## MO-basis OPDM <4| Etu |4> (Symmetry 0) ##
  Irrep: 1 Size: 4 x 4

                 1                   2                   3                   4

    1     0.96236573357055    -0.00000000000000     0.10649542262382    -0.00000000000000
    2    -0.00000000000000     0.03670800277830    -0.00000000000000    -0.00293868098038
    3     0.10649542262382    -0.00000000000000     0.97534076776717     0.00000000000000
    4    -0.00000000000000    -0.00293868098038     0.00000000000000     0.02558549588399



  ## MO-basis OPDM <5| Etu |0> (Symmetry 0) ##
  Irrep: 1 Size: 4 x 4

                 1                   2                   3                   4

    1     0.16937160046339    -0.00000000000000     0.00802928796652    -0.00000000000000
    2     0.00000000000000    -0.16179886206193     0.00000000000000    -0.10090958443026
    3    -0.13924664522103    -0.00000000000000     0.00494961989534    -0.00000000000000
    4    -0.00000000000000    -0.02224917483578     0.00000000000000    -0.01252235829680



  ## MO-basis OPDM <5| Etu |1> (Symmetry 0) ##
  Irrep: 1 Size: 4 x 4

                 1                   2                   3                   4

    1    -0.00000000000000    -0.00000000000000     0.00000000000000     0.00000000000000
    2    -0.00000000000000     0.00000000000000    -0.00000000000000    -0.00000000000000
    3     0.00000000000000     0.00000000000000    -0.00000000000000     0.00000000000000
    4    -0.00000000000000     0.00000000000000    -0.00000000000000     0.00000000000000



  ## MO-basis OPDM <5| Etu |2> (Symmetry 0) ##
  Irrep: 1 Size: 4 x 4

                 1                   2                   3                   4

    1     0.00000000000000     0.10642796288192     0.00000000000000     0.00019445275524
    2     1.34276224204893    -0.00000000000000     0.17818237581219    -0.00000000000000
    3     0.00000000000000    -0.10866839223725     0.00000000000000     0.00580086701473
    4     0.22153196800670    -0.00000000000000     0.03158677198614    -0.00000000000000



  ## MO-basis OPDM <5| Etu |3> (Symmetry 0) ##
  Irrep: 1 Size: 4 x 4

                 1                   2                   3                   4

    1     0.00000000000000    -0.00000000000000    -0.00000000000000     0.00000000000000
    2    -0.00000000000000     0.00000000000000    -0.00000000000000     0.00000000000000
    3     0.00000000000000     0.00000000000000     0.00000000000000    -0.00000000000000
    4    -0.00000000000000     0.00000000000000     0.00000000000000     0.00000000000000



  ## MO-basis OPDM <5| Etu |4> (Symmetry 0) ##
  Irrep: 1 Size: 4 x 4

                 1                   2                   3                   4

    1    -0.09750772686451     0.00000000000000     0.10763821162240    -0.00000000000000
    2     0.00000000000000     0.21778134103297    -0.00000000000000    -0.14246942571723
    3    -0.07825865138396     0.00000000000000    -0.10600397221854    -0.00000000000000
    4    -0.00000000000000     0.04102236066264    -0.00000000000000    -0.01426964194991



  ## MO-basis OPDM <5| Etu |5> (Symmetry 0) ##
  Irrep: 1 Size: 4 x 4

                 1                   2                   3                   4

    1     0.02443532810006     0.00000000000000    -0.00403507373791     0.00000000000000
    2     0.00000000000000     1.90876211576468     0.00000000000000     0.29756164184856
    3    -0.00403507373791     0.00000000000000     0.01619814517985     0.00000000000000
    4     0.00000000000000     0.29756164184856     0.00000000000000     0.05060441095541



  ## MO-basis OPDM <6| Etu |0> (Symmetry 0) ##
  Irrep: 1 Size: 4 x 4

                 1                   2                   3                   4

    1    -0.00000000000000    -0.00000000000000    -0.00000000000000    -0.00000000000000
    2     0.00000000000000     0.00000000000000     0.00000000000000     0.00000000000000
    3    -0.00000000000000     0.00000000000000     0.00000000000000     0.00000000000000
    4     0.00000000000000    -0.00000000000000     0.00000000000000    -0.00000000000000



  ## MO-basis OPDM <6| Etu |1> (Symmetry 0) ##
  Irrep: 1 Size: 4 x 4

                 1                   2                   3                   4

    1    -0.00407440067523     0.00000000000000    -0.02741578410940     0.00000000000000
    2    -0.00000000000000    -0.14131692292103     0.00000000000000    -0.02264064111918
    3     0.07815988181017     0.00000000000000     0.00407440067523    -0.00000000000000
    4     0.00000000000000     0.97597441222691    -0.00000000000000     0.14131692292103



  ## MO-basis OPDM <6| Etu |2> (Symmetry 0) ##
  Irrep: 1 Size: 4 x 4

                 1                   2                   3                   4

    1     0.00000000000000    -0.00000000000000     0.00000000000000    -0.00000000000000
    2    -0.00000000000000     0.00000000000000    -0.00000000000000     0.00000000000000
    3    -0.00000000000000    -0.00000000000000    -0.00000000000000     0.00000000000000
    4    -0.00000000000000     0.00000000000000     0.00000000000000    -0.00000000000000



  ## MO-basis OPDM <6| Etu |3> (Symmetry 0) ##
  Irrep: 1 Size: 4 x 4

                 1                   2                   3                   4

    1    -0.00000000000000    -0.05740246342196     0.00000000000000    -0.00872661816034
    2    -0.06345139661713    -0.00000000000000    -0.14887940834243     0.00000000000000
    3     0.00000000000000    -0.00624223967027     0.00000000000000     0.00371922562148
    4    -0.10649497110644     0.00000000000000     0.97930774953598    -0.00000000000000



  ## MO-basis OPDM <6| Etu |4> (Symmetry 0) ##
  Irrep: 1 Size: 4 x 4

                 1                   2                   3                   4

    1     0.00000000000000    -0.00000000000000    -0.00000000000000    -0.00000000000000
    2    -0.00000000000000    -0.00000000000000     0.00000000000000    -0.00000000000000
    3    -0.00000000000000    -0.00000000000000    -0.00000000000000     0.00000000000000
    4    -0.00000000000000    -0.00000000000000     0.00000000000000     0.00000000000000



  ## MO-basis OPDM <6| Etu |5> (Symmetry 0) ##
  Irrep: 1 Size: 4 x 4

                 1                   2                   3                   4

    1     0.00000000000000     0.00000000000000     0.00000000000000     0.00000000000000
    2     0.00000000000000    -0.00000000000000     0.00000000000000    -0.00000000000000
    3     0.00000000000000    -0.00000000000000     0.00000000000000    -0.00000000000000
    4     0.00000000000000    -0.00000000000000    -0.00000000000000     0.00000000000000



  ## MO-basis OPDM <6| Etu |6> (Symmetry 0) ##
  Irrep: 1 Size: 4 x 4

                 1                   2                   3                   4

    1     0.98457994320105    -0.00000000000000     0.09517060777678    -0.00000000000000
    2    -0.00000000000000     0.02628114446480    -0.00000000000000    -0.13951921676870
    3     0.09517060777678    -0.00000000000000     0.01542005679895     0.00000000000000
    4    -0.00000000000000    -0.13951921676870     0.00000000000000     0.97371885553520



  ## MO-basis OPDM <7| Etu |0> (Symmetry 0) ##
  Irrep: 1 Size: 4 x 4

                 1                   2                   3                   4

    1    -0.00000000000000     0.05343121228426    -0.00000000000000     0.04609606047186
    2    -0.15538982890330     0.00000000000000    -0.05397791657079     0.00000000000000
    3     0.00000000000000    -0.09079797317303     0.00000000000000    -0.05750080901617
    4    -0.89662568257057     0.00000000000000    -0.01684284140901     0.00000000000000



  ## MO-basis OPDM <7| Etu |1> (Symmetry 0) ##
  Irrep: 1 Size: 4 x 4

                 1                   2                   3                   4

    1    -0.00000000000000    -0.00000000000000     0.00000000000000     0.00000000000000
    2     0.00000000000000    -0.00000000000000    -0.00000000000000    -0.00000000000000
    3    -0.00000000000000     0.00000000000000     0.00000000000000     0.00000000000000
    4    -0.00000000000000     0.00000000000000    -0.00000000000000     0.00000000000000



  ## MO-basis OPDM <7| Etu |2> (Symmetry 0) ##
  Irrep: 1 Size: 4 x 4

                 1                   2                   3                   4

    1    -0.09542593641137     0.00000000000000     0.00799642165099    -0.00000000000000
    2    -0.00000000000000    -0.01221382072276    -0.00000000000000    -0.02423202543387
    3     0.72975492038475    -0.00000000000000     0.09542593641137    -0.00000000000000
    4    -0.00000000000000    -0.61044670033835    -0.00000000000000     0.01221382072276



  ## MO-basis OPDM <7| Etu |3> (Symmetry 0) ##
  Irrep: 1 Size: 4 x 4

                 1                   2                   3                   4

    1     0.00000000000000    -0.00000000000000     0.00000000000000    -0.00000000000000
    2    -0.00000000000000     0.00000000000000    -0.00000000000000    -0.00000000000000
    3    -0.00000000000000     0.00000000000000     0.00000000000000     0.00000000000000
    4    -0.00000000000000     0.00000000000000     0.00000000000000    -0.00000000000000



  ## MO-basis OPDM <7| Etu |4> (Symmetry 0) ##
  Irrep: 1 Size: 4 x 4

                 1                   2                   3                   4

    1     0.00000000000000     0.03256453453530    -0.00000000000000     0.09725205323865
    2     0.72875146750414    -0.00000000000000    -0.02809114963059     0.00000000000000
    3    -0.00000000000000     0.11507625313094    -0.00000000000000    -0.08338045741370
    4     0.16421396855697    -0.00000000000000    -0.60872328914355     0.00000000000000



  ## MO-basis OPDM <7| Etu |5> (Symmetry 0) ##
  Irrep: 1 Size: 4 x 4

                 1                   2                   3                   4

    1    -0.00000000000000    -0.29933505295876     0.00000000000000    -0.00688219046855
    2    -0.08720206984351    -0.00000000000000    -0.04827636038395    -0.00000000000000
    3     0.00000000000000     1.04854285021154     0.00000000000000     0.16074219536549
    4    -0.09368853041078    -0.00000000000000     0.04997877382249    -0.00000000000000



  ## MO-basis OPDM <7| Etu |6> (Symmetry 0) ##
  Irrep: 1 Size: 4 x 4

                 1                   2                   3                   4

    1     0.00000000000000     0.00000000000000     0.00000000000000    -0.00000000000000
    2     0.00000000000000    -0.00000000000000    -0.00000000000000    -0.00000000000000
    3     0.00000000000000    -0.00000000000000    -0.00000000000000     0.00000000000000
    4     0.00000000000000    -0.00000000000000    -0.00000000000000     0.00000000000000



  ## MO-basis OPDM <7| Etu |7> (Symmetry 0) ##
  Irrep: 1 Size: 4 x 4

                 1                   2                   3                   4

    1     0.42225095641319     0.00000000000000    -0.19007372278889     0.00000000000000
    2     0.00000000000000     0.56411750390618    -0.00000000000000     0.19509454007309
    3    -0.19007372278889    -0.00000000000000     0.57774904358681    -0.00000000000000
    4     0.00000000000000     0.19509454007309    -0.00000000000000     0.43588249609382



  ## MO-basis OPDM <8| Etu |0> (Symmetry 0) ##
  Irrep: 1 Size: 4 x 4

                 1                   2                   3                   4

    1     0.00000000000000     0.00000000000000     0.00000000000000     0.00000000000000
    2    -0.00000000000000    -0.00000000000000    -0.00000000000000     0.00000000000000
    3    -0.00000000000000    -0.00000000000000     0.00000000000000    -0.00000000000000
    4    -0.00000000000000    -0.00000000000000    -0.00000000000000    -0.00000000000000



  ## MO-basis OPDM <8| Etu |1> (Symmetry 0) ##
  Irrep: 1 Size: 4 x 4

                 1                   2                   3                   4

    1     0.08535166686175     0.00000000000000     0.00521878990368    -0.00000000000000
    2    -0.00000000000000    -0.01470901766620    -0.00000000000000     0.02500023598907
    3    -0.98913643457872     0.00000000000000    -0.08535166686175     0.00000000000000
    4    -0.00000000000000     0.07625754405134    -0.00000000000000     0.01470901766620



  ## MO-basis OPDM <8| Etu |2> (Symmetry 0) ##
  Irrep: 1 Size: 4 x 4

                 1                   2                   3                   4

    1    -0.00000000000000    -0.00000000000000    -0.00000000000000     0.00000000000000
    2     0.00000000000000     0.00000000000000     0.00000000000000    -0.00000000000000
    3    -0.00000000000000    -0.00000000000000     0.00000000000000    -0.00000000000000
    4     0.00000000000000    -0.00000000000000     0.00000000000000    -0.00000000000000



  ## MO-basis OPDM <8| Etu |3> (Symmetry 0) ##
  Irrep: 1 Size: 4 x 4

                 1                   2                   3                   4

    1     0.00000000000000    -0.00518369322356     0.00000000000000     0.00430280675812
    2     0.98380867748360    -0.00000000000000     0.07340751166040    -0.00000000000000
    3    -0.00000000000000     0.00729447759539     0.00000000000000    -0.05766628687480
    4     0.12444654832094     0.00000000000000     0.08843576812605    -0.00000000000000



  ## MO-basis OPDM <8| Etu |4> (Symmetry 0) ##
  Irrep: 1 Size: 4 x 4

                 1                   2                   3                   4

    1    -0.00000000000000    -0.00000000000000    -0.00000000000000     0.00000000000000
    2     0.00000000000000     0.00000000000000    -0.00000000000000     0.00000000000000
    3     0.00000000000000     0.00000000000000    -0.00000000000000    -0.00000000000000
    4     0.00000000000000     0.00000000000000    -0.00000000000000     0.00000000000000



  ## MO-basis OPDM <8| Etu |5> (Symmetry 0) ##
  Irrep: 1 Size: 4 x 4

                 1                   2                   3                   4

    1     0.00000000000000    -0.00000000000000     0.00000000000000    -0.00000000000000
    2    -0.00000000000000     0.00000000000000    -0.00000000000000    -0.00000000000000
    3     0.00000000000000     0.00000000000000    -0.00000000000000     0.00000000000000
    4    -0.00000000000000     0.00000000000000     0.00000000000000    -0.00000000000000



  ## MO-basis OPDM <8| Etu |6> (Symmetry 0) ##
  Irrep: 1 Size: 4 x 4

                 1                   2                   3                   4

    1     0.07593697396718    -0.00000000000000     0.01412413467302     0.00000000000000
    2     0.00000000000000    -0.07360492437751     0.00000000000000    -0.03299510671572
    3     0.02468189533514     0.00000000000000    -0.07593697396718    -0.00000000000000
    4     0.00000000000000    -0.02113493804945    -0.00000000000000     0.07360492437751



  ## MO-basis OPDM <8| Etu |7> (Symmetry 0) ##
  Irrep: 1 Size: 4 x 4

                 1                   2                   3                   4

    1     0.00000000000000    -0.00000000000000    -0.00000000000000    -0.00000000000000
    2     0.00000000000000    -0.00000000000000     0.00000000000000     0.00000000000000
    3     0.00000000000000    -0.00000000000000    -0.00000000000000     0.00000000000000
    4     0.00000000000000     0.00000000000000     0.00000000000000     0.00000000000000



  ## MO-basis OPDM <8| Etu |8> (Symmetry 0) ##
  Irrep: 1 Size: 4 x 4

                 1                   2                   3                   4

    1     0.01325493267365     0.00000000000000    -0.08351041227834    -0.00000000000000
    2     0.00000000000000     0.97661209144813    -0.00000000000000     0.12936639366879
    3    -0.08351041227834    -0.00000000000000     0.98674506732635     0.00000000000000
    4    -0.00000000000000     0.12936639366879     0.00000000000000     0.02338790855187



  ## MO-basis OPDM <9| Etu |0> (Symmetry 0) ##
  Irrep: 1 Size: 4 x 4

                 1                   2                   3                   4

    1    -0.00000000000000     0.04077587463519    -0.00000000000000     0.04118745318156
    2     0.09316079542287    -0.00000000000000     0.04707143735894    -0.00000000000000
    3    -0.00000000000000     0.06704845758479    -0.00000000000000     0.03855441521507
    4    -1.05866583515015     0.00000000000000    -0.00977785843219     0.00000000000000



  ## MO-basis OPDM <9| Etu |1> (Symmetry 0) ##
  Irrep: 1 Size: 4 x 4

                 1                   2                   3                   4

    1    -0.00000000000000     0.00000000000000     0.00000000000000     0.00000000000000
    2    -0.00000000000000    -0.00000000000000     0.00000000000000     0.00000000000000
    3     0.00000000000000     0.00000000000000     0.00000000000000     0.00000000000000
    4    -0.00000000000000     0.00000000000000    -0.00000000000000     0.00000000000000



  ## MO-basis OPDM <9| Etu |2> (Symmetry 0) ##
  Irrep: 1 Size: 4 x 4

                 1                   2                   3                   4

    1     0.09090713484709     0.00000000000000     0.03754940159116    -0.00000000000000
    2     0.00000000000000    -0.01963775856222     0.00000000000000     0.02211888472671
    3    -0.64530594307426    -0.00000000000000    -0.09090713484709     0.00000000000000
    4    -0.00000000000000    -0.73929524941883    -0.00000000000000     0.01963775856222



  ## MO-basis OPDM <9| Etu |3> (Symmetry 0) ##
  Irrep: 1 Size: 4 x 4

                 1                   2                   3                   4

    1    -0.00000000000000    -0.00000000000000     0.00000000000000    -0.00000000000000
    2     0.00000000000000    -0.00000000000000    -0.00000000000000     0.00000000000000
    3     0.00000000000000    -0.00000000000000     0.00000000000000    -0.00000000000000
    4     0.00000000000000     0.00000000000000     0.00000000000000    -0.00000000000000



  ## MO-basis OPDM <9| Etu |4> (Symmetry 0) ##
  Irrep: 1 Size: 4 x 4

                 1                   2                   3                   4

    1    -0.00000000000000     0.07401026235670     0.00000000000000     0.09783838288296
    2    -0.63866217168412     0.00000000000000    -0.00545852583023     0.00000000000000
    3    -0.00000000000000    -0.11693067957364    -0.00000000000000     0.04621707713554
    4     0.05524439898378    -0.00000000000000    -0.73405778949556     0.00000000000000



  ## MO-basis OPDM <9| Etu |5> (Symmetry 0) ##
  Irrep: 1 Size: 4 x 4

                 1                   2                   3                   4

    1     0.00000000000000    -0.07270283725323     0.00000000000000     0.03774279646134
    2     0.07272533070847     0.00000000000000     0.04534691702825     0.00000000000000
    3    -0.00000000000000    -0.87551186782890    -0.00000000000000    -0.14664542218972
    4    -0.09657011939304    -0.00000000000000     0.07028384756698    -0.00000000000000



  ## MO-basis OPDM <9| Etu |6> (Symmetry 0) ##
  Irrep: 1 Size: 4 x 4

                 1                   2                   3                   4

    1    -0.00000000000000     0.00000000000000     0.00000000000000    -0.00000000000000
    2     0.00000000000000     0.00000000000000     0.00000000000000     0.00000000000000
    3    -0.00000000000000     0.00000000000000     0.00000000000000     0.00000000000000
    4     0.00000000000000    -0.00000000000000     0.00000000000000    -0.00000000000000



  ## MO-basis OPDM <9| Etu |7> (Symmetry 0) ##
  Irrep: 1 Size: 4 x 4

                 1                   2                   3                   4

    1     0.47439812841067     0.00000000000000    -0.07156803762272    -0.00000000000000
    2     0.00000000000000    -0.49098638067091     0.00000000000000    -0.15140839606393
    3     0.04145075624567    -0.00000000000000    -0.47439812841067     0.00000000000000
    4     0.00000000000000     0.12536022797071    -0.00000000000000     0.49098638067091



  ## MO-basis OPDM <9| Etu |8> (Symmetry 0) ##
  Irrep: 1 Size: 4 x 4

                 1                   2                   3                   4

    1     0.00000000000000     0.00000000000000    -0.00000000000000     0.00000000000000
    2     0.00000000000000    -0.00000000000000    -0.00000000000000    -0.00000000000000
    3     0.00000000000000    -0.00000000000000    -0.00000000000000    -0.00000000000000
    4    -0.00000000000000     0.00000000000000     0.00000000000000     0.00000000000000



  ## MO-basis OPDM <9| Etu |9> (Symmetry 0) ##
  Irrep: 1 Size: 4 x 4

                 1                   2                   3                   4

    1     0.57394154431717     0.00000000000000    -0.08489524326303    -0.00000000000000
    2     0.00000000000000     0.42825425780008    -0.00000000000000    -0.08675887724538
    3    -0.08489524326303    -0.00000000000000     0.42605845568283     0.00000000000000
    4    -0.00000000000000    -0.08675887724538     0.00000000000000     0.57174574219992



  ## MO-basis OPDM <10| Etu |0> (Symmetry 0) ##
  Irrep: 1 Size: 4 x 4

                 1                   2                   3                   4

    1     0.00000000000000     0.00000000000000     0.00000000000000     0.00000000000000
    2     0.00000000000000     0.00000000000000     0.00000000000000     0.00000000000000
    3    -0.00000000000000     0.00000000000000    -0.00000000000000     0.00000000000000
    4    -0.00000000000000     0.00000000000000    -0.00000000000000     0.00000000000000



  ## MO-basis OPDM <10| Etu |1> (Symmetry 0) ##
  Irrep: 1 Size: 4 x 4

                 1                   2                   3                   4

    1     0.00000000000000     0.00517518150340     0.00000000000000    -0.00084856412537
    2    -0.14538306639750     0.00000000000000     0.01447682511198     0.00000000000000
    3    -0.00000000000000    -0.05765304234307    -0.00000000000000    -0.00852167886449
    4     0.98358272076010    -0.00000000000000     0.08829055495887    -0.00000000000000



  ## MO-basis OPDM <10| Etu |2> (Symmetry 0) ##
  Irrep: 1 Size: 4 x 4

                 1                   2                   3                   4

    1    -0.00000000000000     0.00000000000000     0.00000000000000     0.00000000000000
    2     0.00000000000000     0.00000000000000     0.00000000000000     0.00000000000000
    3    -0.00000000000000    -0.00000000000000    -0.00000000000000     0.00000000000000
    4     0.00000000000000    -0.00000000000000    -0.00000000000000     0.00000000000000



  ## MO-basis OPDM <10| Etu |3> (Symmetry 0) ##
  Irrep: 1 Size: 4 x 4

                 1                   2                   3                   4

    1    -0.05841464821346     0.00000000000000    -0.00000000000000     0.00000000000000
    2     0.00000000000000     0.05841464821346     0.00000000000000    -0.00000000000000
    3    -0.00000000000000    -0.00000000000000    -0.05841464821346    -0.00000000000000
    4     0.00000000000000    -0.00000000000000    -0.00000000000000     0.05841464821346



  ## MO-basis OPDM <10| Etu |4> (Symmetry 0) ##
  Irrep: 1 Size: 4 x 4

                 1                   2                   3                   4

    1    -0.00000000000000     0.00000000000000     0.00000000000000     0.00000000000000
    2    -0.00000000000000     0.00000000000000     0.00000000000000     0.00000000000000
    3     0.00000000000000    -0.00000000000000    -0.00000000000000    -0.00000000000000
    4     0.00000000000000    -0.00000000000000    -0.00000000000000     0.00000000000000



  ## MO-basis OPDM <10| Etu |5> (Symmetry 0) ##
  Irrep: 1 Size: 4 x 4

                 1                   2                   3                   4

    1     0.00000000000000    -0.00000000000000     0.00000000000000     0.00000000000000
    2    -0.00000000000000     0.00000000000000    -0.00000000000000     0.00000000000000
    3    -0.00000000000000    -0.00000000000000     0.00000000000000    -0.00000000000000
    4    -0.00000000000000    -0.00000000000000     0.00000000000000    -0.00000000000000



  ## MO-basis OPDM <10| Etu |6> (Symmetry 0) ##
  Irrep: 1 Size: 4 x 4

                 1                   2                   3                   4

    1    -0.00000000000000     0.00371922562148    -0.00000000000000     0.00624223967027
    2    -0.97930774953598     0.00000000000000    -0.10649497110644     0.00000000000000
    3    -0.00000000000000     0.00872661816034    -0.00000000000000    -0.05740246342196
[...]
    2     0.00761439964848    -0.00000000000000     0.00233528688247    -0.00000000000000
    3     0.00000000000000     0.98465136185757     0.00000000000000     0.12990453961892
    4    -0.05771568111167     0.00000000000000    -0.00542792536200     0.00000000000000



  ## MO-basis OPDM <13| Etu |11> (Symmetry 0) ##
  Irrep: 1 Size: 4 x 4

                 1                   2                   3                   4

    1     0.00000000000000     0.00000000000000    -0.00000000000000    -0.00000000000000
    2     0.00000000000000     0.00000000000000     0.00000000000000    -0.00000000000000
    3    -0.00000000000000     0.00000000000000    -0.00000000000000     0.00000000000000
    4    -0.00000000000000    -0.00000000000000     0.00000000000000     0.00000000000000



  ## MO-basis OPDM <13| Etu |12> (Symmetry 0) ##
  Irrep: 1 Size: 4 x 4

                 1                   2                   3                   4

    1     0.00000000000000    -0.00000000000000     0.00000000000000    -0.00000000000000
    2    -0.00000000000000     0.00000000000000    -0.00000000000000    -0.00000000000000
    3     0.00000000000000    -0.00000000000000    -0.00000000000000    -0.00000000000000
    4    -0.00000000000000    -0.00000000000000    -0.00000000000000    -0.00000000000000



  ## MO-basis OPDM <13| Etu |13> (Symmetry 0) ##
  Irrep: 1 Size: 4 x 4

                 1                   2                   3                   4

    1     0.01019742725024     0.00000000000000    -0.09668770830320     0.00000000000000
    2     0.00000000000000     0.01852591761928    -0.00000000000000    -0.13205219121565
    3    -0.09668770830320    -0.00000000000000     0.98980257274976    -0.00000000000000
    4     0.00000000000000    -0.13205219121565    -0.00000000000000     0.98147408238072



  ## MO-basis OPDM <14| Etu |0> (Symmetry 0) ##
  Irrep: 1 Size: 4 x 4

                 1                   2                   3                   4

    1     0.00000000000000    -0.01501245249324    -0.00000000000000    -0.01217476798719
    2     0.07329125414986    -0.00000000000000     0.00642248857038    -0.00000000000000
    3     0.00000000000000    -0.05402510435251    -0.00000000000000    -0.05423111551896
    4     0.21187377421382    -0.00000000000000    -0.06920116220910    -0.00000000000000



  ## MO-basis OPDM <14| Etu |1> (Symmetry 0) ##
  Irrep: 1 Size: 4 x 4

                 1                   2                   3                   4

    1    -0.00000000000000    -0.00000000000000    -0.00000000000000    -0.00000000000000
    2    -0.00000000000000    -0.00000000000000     0.00000000000000     0.00000000000000
    3     0.00000000000000     0.00000000000000    -0.00000000000000     0.00000000000000
    4     0.00000000000000    -0.00000000000000     0.00000000000000    -0.00000000000000



  ## MO-basis OPDM <14| Etu |2> (Symmetry 0) ##
  Irrep: 1 Size: 4 x 4

                 1                   2                   3                   4

    1     0.04797470494611     0.00000000000000     0.00181794161044    -0.00000000000000
    2     0.00000000000000     0.04065093357968     0.00000000000000     0.00160545571531
    3    -0.11120085225795    -0.00000000000000    -0.04797470494611     0.00000000000000
    4     0.00000000000000     0.27837407974995    -0.00000000000000    -0.04065093357968



  ## MO-basis OPDM <14| Etu |3> (Symmetry 0) ##
  Irrep: 1 Size: 4 x 4

                 1                   2                   3                   4

    1    -0.00000000000000     0.00000000000000    -0.00000000000000     0.00000000000000
    2    -0.00000000000000    -0.00000000000000     0.00000000000000     0.00000000000000
    3     0.00000000000000     0.00000000000000    -0.00000000000000     0.00000000000000
    4    -0.00000000000000    -0.00000000000000    -0.00000000000000    -0.00000000000000



  ## MO-basis OPDM <14| Etu |4> (Symmetry 0) ##
  Irrep: 1 Size: 4 x 4

                 1                   2                   3                   4

    1     0.00000000000000    -0.00279557086282     0.00000000000000    -0.02427159622957
    2    -0.08262713686812     0.00000000000000     0.04210860044754    -0.00000000000000
    3     0.00000000000000    -0.09528268561293     0.00000000000000    -0.12829515543250
    4     0.96490216138724    -0.00000000000000     0.25478229640754    -0.00000000000000



  ## MO-basis OPDM <14| Etu |5> (Symmetry 0) ##
  Irrep: 1 Size: 4 x 4

                 1                   2                   3                   4

    1    -0.00000000000000     0.10423291523278    -0.00000000000000     0.00749098632482
    2     0.01467113169511     0.00000000000000     0.00154138007493     0.00000000000000
    3    -0.00000000000000     0.10511906237978    -0.00000000000000    -0.04757891939490
    4    -0.07957362375854     0.00000000000000    -0.09341733276065    -0.00000000000000



  ## MO-basis OPDM <14| Etu |6> (Symmetry 0) ##
  Irrep: 1 Size: 4 x 4

                 1                   2                   3                   4

    1     0.00000000000000    -0.00000000000000    -0.00000000000000    -0.00000000000000
    2     0.00000000000000     0.00000000000000     0.00000000000000     0.00000000000000
    3     0.00000000000000    -0.00000000000000    -0.00000000000000     0.00000000000000
    4    -0.00000000000000    -0.00000000000000    -0.00000000000000    -0.00000000000000



  ## MO-basis OPDM <14| Etu |7> (Symmetry 0) ##
  Irrep: 1 Size: 4 x 4

                 1                   2                   3                   4

    1    -0.09897167595733     0.00000000000000     0.06290306556177    -0.00000000000000
    2    -0.00000000000000    -0.06835307068357     0.00000000000000    -0.04744407418059
    3    -0.61995227910364    -0.00000000000000     0.09897167595733     0.00000000000000
    4    -0.00000000000000     0.71397005996495     0.00000000000000     0.06835307068357



  ## MO-basis OPDM <14| Etu |8> (Symmetry 0) ##
  Irrep: 1 Size: 4 x 4

                 1                   2                   3                   4

    1    -0.00000000000000     0.00000000000000     0.00000000000000     0.00000000000000
    2     0.00000000000000    -0.00000000000000    -0.00000000000000    -0.00000000000000
    3    -0.00000000000000     0.00000000000000    -0.00000000000000     0.00000000000000
    4    -0.00000000000000     0.00000000000000     0.00000000000000     0.00000000000000



  ## MO-basis OPDM <14| Etu |9> (Symmetry 0) ##
  Irrep: 1 Size: 4 x 4

                 1                   2                   3                   4

    1    -0.10590069224674    -0.00000000000000    -0.02670820087248    -0.00000000000000
    2    -0.00000000000000     0.05830335248091    -0.00000000000000    -0.04411334094043
    3    -0.74846669960624    -0.00000000000000     0.10590069224674     0.00000000000000
    4    -0.00000000000000    -0.63032801584492    -0.00000000000000    -0.05830335248091



  ## MO-basis OPDM <14| Etu |10> (Symmetry 0) ##
  Irrep: 1 Size: 4 x 4

                 1                   2                   3                   4

    1    -0.00000000000000     0.00000000000000     0.00000000000000     0.00000000000000
    2     0.00000000000000    -0.00000000000000    -0.00000000000000    -0.00000000000000
    3    -0.00000000000000    -0.00000000000000     0.00000000000000     0.00000000000000
    4    -0.00000000000000    -0.00000000000000     0.00000000000000     0.00000000000000



  ## MO-basis OPDM <14| Etu |11> (Symmetry 0) ##
  Irrep: 1 Size: 4 x 4

                 1                   2                   3                   4

    1    -0.00000000000000     0.00664812674127     0.00000000000000    -0.02108024674207
    2     0.01166523606786     0.00000000000000    -0.12212795376681    -0.00000000000000
    3    -0.00000000000000     0.02305499066629     0.00000000000000    -0.15503839024410
    4    -0.08199472564449     0.00000000000000     1.36070996776657    -0.00000000000000



  ## MO-basis OPDM <14| Etu |12> (Symmetry 0) ##
  Irrep: 1 Size: 4 x 4

                 1                   2                   3                   4

    1     0.00000000000000    -0.12450219272706     0.00000000000000    -0.06054508337374
    2     0.00601861442372    -0.00000000000000    -0.00665732236780    -0.00000000000000
    3     0.00000000000000    -0.97814282100946     0.00000000000000     0.01637583437876
    4    -0.12093707046765    -0.00000000000000    -0.00824509581454    -0.00000000000000



  ## MO-basis OPDM <14| Etu |13> (Symmetry 0) ##
  Irrep: 1 Size: 4 x 4

                 1                   2                   3                   4

    1     0.00000000000000     0.00000000000000     0.00000000000000     0.00000000000000
    2     0.00000000000000     0.00000000000000    -0.00000000000000    -0.00000000000000
    3     0.00000000000000    -0.00000000000000    -0.00000000000000     0.00000000000000
    4    -0.00000000000000     0.00000000000000    -0.00000000000000    -0.00000000000000



  ## MO-basis OPDM <14| Etu |14> (Symmetry 0) ##
  Irrep: 1 Size: 4 x 4

                 1                   2                   3                   4

    1     0.02388228511723     0.00000000000000     0.13859601925963     0.00000000000000
    2     0.00000000000000     0.00982036107493     0.00000000000000    -0.07497237199859
    3     0.13859601925963     0.00000000000000     0.97611771488277     0.00000000000000
    4     0.00000000000000    -0.07497237199859     0.00000000000000     0.99017963892507



  ## MO-basis OPDM <15| Etu |0> (Symmetry 0) ##
  Irrep: 1 Size: 4 x 4

                 1                   2                   3                   4

    1    -0.09580760953013    -0.00000000000000     0.00510391608554    -0.00000000000000
    2     0.00000000000000     0.00346519682442     0.00000000000000     0.00095301292675
    3    -0.11223270869522    -0.00000000000000     0.01094538638191    -0.00000000000000
    4    -0.00000000000000     0.08420164664733    -0.00000000000000     0.08139702632381



  ## MO-basis OPDM <15| Etu |1> (Symmetry 0) ##
  Irrep: 1 Size: 4 x 4

                 1                   2                   3                   4

    1    -0.00000000000000     0.00000000000000    -0.00000000000000     0.00000000000000
    2     0.00000000000000    -0.00000000000000    -0.00000000000000     0.00000000000000
    3    -0.00000000000000     0.00000000000000    -0.00000000000000     0.00000000000000
    4    -0.00000000000000     0.00000000000000     0.00000000000000     0.00000000000000



  ## MO-basis OPDM <15| Etu |2> (Symmetry 0) ##
  Irrep: 1 Size: 4 x 4

                 1                   2                   3                   4

    1     0.00000000000000    -0.07788120124413     0.00000000000000     0.00486767759498
    2    -0.06167435230428     0.00000000000000    -0.01013823316402     0.00000000000000
    3    -0.00000000000000    -0.10033544856497    -0.00000000000000     0.00826510467022
    4     0.08815108387524     0.00000000000000     0.05841496856078    -0.00000000000000



  ## MO-basis OPDM <15| Etu |3> (Symmetry 0) ##
  Irrep: 1 Size: 4 x 4

                 1                   2                   3                   4

    1     0.00000000000000     0.00000000000000     0.00000000000000    -0.00000000000000
    2     0.00000000000000    -0.00000000000000     0.00000000000000     0.00000000000000
    3     0.00000000000000     0.00000000000000     0.00000000000000    -0.00000000000000
    4    -0.00000000000000    -0.00000000000000     0.00000000000000    -0.00000000000000



  ## MO-basis OPDM <15| Etu |4> (Symmetry 0) ##
  Irrep: 1 Size: 4 x 4

                 1                   2                   3                   4

    1    -0.07713900444850     0.00000000000000    -0.07550990684713     0.00000000000000
    2    -0.00000000000000    -0.01454712130734     0.00000000000000    -0.00169753834678
    3    -0.15848044492843    -0.00000000000000    -0.09598419675427    -0.00000000000000
    4     0.00000000000000     0.12293498346587     0.00000000000000     0.18767032251010



  ## MO-basis OPDM <15| Etu |5> (Symmetry 0) ##
  Irrep: 1 Size: 4 x 4

                 1                   2                   3                   4

    1    -0.00041579111280     0.00000000000000     0.01303893095284     0.00000000000000
    2     0.00000000000000    -0.07218840210368    -0.00000000000000    -0.01501656715752
    3     0.00641566881463    -0.00000000000000     0.02081260993744    -0.00000000000000
    4     0.00000000000000    -0.24483789786853     0.00000000000000     0.05179158327904



  ## MO-basis OPDM <15| Etu |6> (Symmetry 0) ##
  Irrep: 1 Size: 4 x 4

                 1                   2                   3                   4

    1     0.00000000000000     0.00000000000000     0.00000000000000    -0.00000000000000
    2     0.00000000000000     0.00000000000000     0.00000000000000     0.00000000000000
    3    -0.00000000000000     0.00000000000000     0.00000000000000    -0.00000000000000
    4    -0.00000000000000     0.00000000000000     0.00000000000000    -0.00000000000000



  ## MO-basis OPDM <15| Etu |7> (Symmetry 0) ##
  Irrep: 1 Size: 4 x 4

                 1                   2                   3                   4

    1     0.00000000000000    -0.05085570262833     0.00000000000000     0.03041081672743
    2    -0.02417947339928    -0.00000000000000    -0.03723012161367    -0.00000000000000
    3    -0.00000000000000    -0.11115680635881     0.00000000000000     0.02399549145172
    4     0.88709269918105     0.00000000000000    -0.19247671142086     0.00000000000000



  ## MO-basis OPDM <15| Etu |8> (Symmetry 0) ##
  Irrep: 1 Size: 4 x 4

                 1                   2                   3                   4

    1     0.00000000000000    -0.00000000000000     0.00000000000000     0.00000000000000
    2    -0.00000000000000    -0.00000000000000    -0.00000000000000    -0.00000000000000
    3     0.00000000000000    -0.00000000000000     0.00000000000000     0.00000000000000
    4     0.00000000000000    -0.00000000000000    -0.00000000000000    -0.00000000000000



  ## MO-basis OPDM <15| Etu |9> (Symmetry 0) ##
  Irrep: 1 Size: 4 x 4

                 1                   2                   3                   4

    1     0.00000000000000     0.04665940496870    -0.00000000000000     0.04701878625718
    2    -0.04104492766624     0.00000000000000     0.04217763438569    -0.00000000000000
    3    -0.00000000000000     0.09986412662990     0.00000000000000     0.05116260251957
    4     1.05631391852399     0.00000000000000    -0.10444242718496    -0.00000000000000



  ## MO-basis OPDM <15| Etu |10> (Symmetry 0) ##
  Irrep: 1 Size: 4 x 4

                 1                   2                   3                   4

    1     0.00000000000000     0.00000000000000     0.00000000000000    -0.00000000000000
    2    -0.00000000000000    -0.00000000000000     0.00000000000000     0.00000000000000
    3     0.00000000000000     0.00000000000000    -0.00000000000000    -0.00000000000000
    4     0.00000000000000     0.00000000000000    -0.00000000000000     0.00000000000000



  ## MO-basis OPDM <15| Etu |11> (Symmetry 0) ##
  Irrep: 1 Size: 4 x 4

                 1                   2                   3                   4

    1     0.00254941510484     0.00000000000000    -0.10394557036538     0.00000000000000
    2     0.00000000000000    -0.00168953999439    -0.00000000000000    -0.00924897700377
    3     0.00953451351827     0.00000000000000    -0.21874173522593    -0.00000000000000
    4     0.00000000000000    -0.03619359151155     0.00000000000000     0.21788186011549



  ## MO-basis OPDM <15| Etu |12> (Symmetry 0) ##
  Irrep: 1 Size: 4 x 4

                 1                   2                   3                   4

    1     0.01340977243512     0.00000000000000     0.00701063066181    -0.00000000000000
    2     0.00000000000000    -0.06576175294389    -0.00000000000000     0.05573588783348
    3     0.02353667360254    -0.00000000000000     0.00759005841941     0.00000000000000
    4    -0.00000000000000     1.36545360849638    -0.00000000000000     0.04476192208936



  ## MO-basis OPDM <15| Etu |13> (Symmetry 0) ##
  Irrep: 1 Size: 4 x 4

                 1                   2                   3                   4

    1     0.00000000000000    -0.00000000000000     0.00000000000000    -0.00000000000000
    2     0.00000000000000    -0.00000000000000    -0.00000000000000     0.00000000000000
    3     0.00000000000000    -0.00000000000000     0.00000000000000    -0.00000000000000
    4    -0.00000000000000     0.00000000000000     0.00000000000000    -0.00000000000000



  ## MO-basis OPDM <15| Etu |14> (Symmetry 0) ##
  Irrep: 1 Size: 4 x 4

                 1                   2                   3                   4

    1    -0.00000000000000     0.00306065638278    -0.00000000000000    -0.08762975160457
    2     0.00387346766376     0.00000000000000     0.05310596892496    -0.00000000000000
    3     0.00000000000000     0.00943424040909     0.00000000000000    -0.17094788403627
    4    -0.20021397127589    -0.00000000000000    -1.37812226805267    -0.00000000000000



  ## MO-basis OPDM <15| Etu |15> (Symmetry 0) ##
  Irrep: 1 Size: 4 x 4

                 1                   2                   3                   4

    1     0.01083825168658    -0.00000000000000     0.01815567844530     0.00000000000000
    2    -0.00000000000000     0.00608806250489     0.00000000000000    -0.07101794604770
    3     0.01815567844530     0.00000000000000     0.03248488651827    -0.00000000000000
    4     0.00000000000000    -0.07101794604770    -0.00000000000000     1.95058879929026



  ## AO Mux (Symmetry 0) ##
  Irrep: 1 Size: 4 x 4

                 1                   2                   3                   4

    1     0.00000000000000     0.00000000000000     0.00000000000000     0.00000000000000
    2     0.00000000000000     0.00000000000000     0.00000000000000     0.00000000000000
    3     0.00000000000000     0.00000000000000     0.00000000000000     0.00000000000000
    4     0.00000000000000     0.00000000000000     0.00000000000000     0.00000000000000



  ## AO Muy (Symmetry 0) ##
  Irrep: 1 Size: 4 x 4

                 1                   2                   3                   4

    1     0.00000000000000     0.00000000000000     0.00000000000000     0.00000000000000
    2     0.00000000000000     0.00000000000000     0.00000000000000     0.00000000000000
    3     0.00000000000000     0.00000000000000     0.00000000000000     0.00000000000000
    4     0.00000000000000     0.00000000000000     0.00000000000000     0.00000000000000



  ## AO Muz (Symmetry 0) ##
  Irrep: 1 Size: 4 x 4

                 1                   2                   3                   4

    1     0.69919866641940     0.46027692301255     0.00000000000000     0.22409559585490
    2     0.46027692301255     0.69919866641940    -0.22409559585490     0.00000000000000
    3     0.00000000000000    -0.22409559585490    -0.69919866641940    -0.46027692301255
    4     0.22409559585490     0.00000000000000    -0.46027692301255    -0.69919866641940



  ## Alpha MO coefficients (Symmetry 0) ##
  Irrep: 1 Size: 4 x 4

                 1                   2                   3                   4

    1     0.32693513071575     0.12264887071698     0.76631477698051     1.12263455683473
    2     0.27180596137293     1.71489493351151    -0.68625226070897    -1.34943203301861
    3     0.32693513071575    -0.12264887071698     0.76631477698051    -1.12263455683473
    4     0.27180596137293    -1.71489493351151    -0.68625226070897     1.34943203301862




    Psi4 stopped on: Sunday, 17 August 2025 05:45PM
    Psi4 wall time for execution: 0:00:00.34

*** Psi4 exiting successfully. Buy a developer a beer!
